8
Lattice="6.231654 0.0 0.0 0.0 6.253541 0.0 0.0 0.0 6.253541" Properties=species:S:1:pos:R:3:forces:R:3 energy=-23.411879999999655 stress="-0.005755379579598321 9.181576765360095e-08 9.181576765360095e-08 9.181576765360095e-08 -0.006051944509119453 9.181576765360095e-08 9.181576765360095e-08 9.181576765360095e-08 -0.006051944509119453" pbc="T T T" 
Se       3.11582750       0.00000000       0.00000000       0.00004433      -0.00003070      -0.00003067
Se       0.00000000       3.12677100       0.00000000      -0.00003836       0.00003690      -0.00003067
Se       4.67374075       1.56338500       1.56338500       0.00003808      -0.00003713      -0.00003713
Se       1.55791325       4.69015600       1.56338500      -0.00004427       0.00003065      -0.00003710
Se       0.00000000       0.00000000       3.12677100      -0.00003836      -0.00003070       0.00003690
Se       3.11582750       3.12677100       3.12677100       0.00004430       0.00003690       0.00003687
Se       1.55791325       1.56338500       4.69015600      -0.00004427      -0.00003710       0.00003065
Se       4.67374075       4.69015600       4.69015600       0.00003808       0.00003070       0.00003067
8
Lattice="6.187879 0.0 0.0 0.0 6.253541 0.0 0.0 0.0 6.253541" Properties=species:S:1:pos:R:3:forces:R:3 energy=-23.401409000000058 stress="-0.0070463092728079504 9.181576765360095e-08 9.181576765360095e-08 9.181576765360095e-08 -0.008656023311310882 9.181576765360095e-08 9.181576765360095e-08 9.181576765360095e-08 -0.008656023311310882" pbc="T T T" 
Se       3.09394000       0.00000000       0.00000000       0.00005173       0.00002494       0.00002497
Se       0.00000000       3.12677100       0.00000000      -0.00004595      -0.00001861       0.00002497
Se       4.64090950       1.56338500       1.56338500       0.00004543       0.00001836       0.00001838
Se       1.54696950       4.69015600       1.56338500      -0.00005145      -0.00002489       0.00001833
Se       0.00000000       0.00000000       3.12677100      -0.00004595       0.00002494      -0.00001861
Se       3.09394000       3.12677100       3.12677100       0.00005170      -0.00001861      -0.00001861
Se       1.54696950       1.56338500       4.69015600      -0.00005147       0.00001831      -0.00002489
Se       4.64090950       4.69015600       4.69015600       0.00004548      -0.00002489      -0.00002491
8
Lattice="6.209766 0.0 0.0 0.0 6.253541 0.0 0.0 0.0 6.253541" Properties=species:S:1:pos:R:3:forces:R:3 energy=-23.407007999999678 stress="-0.006374309669351245 9.181576765360095e-08 9.181576765360095e-08 9.181576765360095e-08 -0.007346914096105841 9.181576765360095e-08 9.181576765360095e-08 9.181576765360095e-08 -0.007346914096105841" pbc="T T T" 
Se       3.10488350       0.00000000       0.00000000       0.00007089      -0.00006034      -0.00006032
Se       0.00000000       3.12677100       0.00000000      -0.00006502       0.00006659      -0.00006029
Se       4.65732475       1.56338500       1.56338500       0.00006366      -0.00006672      -0.00006662
Se       1.55244125       4.69015600       1.56338500      -0.00006975       0.00006027      -0.00006662
Se       0.00000000       0.00000000       3.12677100      -0.00006502      -0.00006034       0.00006657
Se       3.10488350       3.12677100       3.12677100       0.00007086       0.00006659       0.00006657
Se       1.55244125       1.56338500       4.69015600      -0.00006975      -0.00006672       0.00006016
Se       4.65732475       4.69015600       4.69015600       0.00006363       0.00006024       0.00006014
8
Lattice="6.231654 0.0 0.0 0.0 6.253541 0.0 0.0 0.0 6.253541" Properties=species:S:1:pos:R:3:forces:R:3 energy=-23.411879999999655 stress="-0.005755379579598321 9.181576765360095e-08 9.181576765360095e-08 9.181576765360095e-08 -0.006051944509119453 9.181576765360095e-08 9.181576765360095e-08 9.181576765360095e-08 -0.006051944509119453" pbc="T T T" 
Se       3.11582750       0.00000000       0.00000000       0.00004433      -0.00003070      -0.00003067
Se       0.00000000       3.12677100       0.00000000      -0.00003836       0.00003690      -0.00003067
Se       4.67374075       1.56338500       1.56338500       0.00003808      -0.00003713      -0.00003713
Se       1.55791325       4.69015600       1.56338500      -0.00004427       0.00003065      -0.00003710
Se       0.00000000       0.00000000       3.12677100      -0.00003836      -0.00003070       0.00003690
Se       3.11582750       3.12677100       3.12677100       0.00004430       0.00003690       0.00003687
Se       1.55791325       1.56338500       4.69015600      -0.00004427      -0.00003710       0.00003065
Se       4.67374075       4.69015600       4.69015600       0.00003808       0.00003070       0.00003067
8
Lattice="6.253541 0.0 0.0 0.0 6.253541 0.0 0.0 0.0 6.253541" Properties=species:S:1:pos:R:3:forces:R:3 energy=-23.41599899999983 stress="-0.004747701529600051 9.181576765360095e-08 9.181576765360095e-08 9.181576765360095e-08 -0.004747701529600051 9.181576765360095e-08 9.181576765360095e-08 9.181576765360095e-08 -0.004747701529600051" pbc="T T T" 
Se       3.12677100       0.00000000       0.00000000       0.00000257       0.00000360       0.00000360
Se       0.00000000       3.12677100       0.00000000       0.00000360       0.00000257       0.00000360
Se       4.69015600       1.56338500       1.56338500      -0.00000370      -0.00000267      -0.00000267
Se       1.56338500       4.69015600       1.56338500      -0.00000267      -0.00000370      -0.00000267
Se       0.00000000       0.00000000       3.12677100       0.00000360       0.00000360       0.00000257
Se       3.12677100       3.12677100       3.12677100       0.00000252       0.00000252       0.00000252
Se       1.56338500       1.56338500       4.69015600      -0.00000267      -0.00000267      -0.00000368
Se       4.69015600       4.69015600       4.69015600      -0.00000370      -0.00000370      -0.00000370
8
Lattice="6.275428 0.0 0.0 0.0 6.253541 0.0 0.0 0.0 6.253541" Properties=species:S:1:pos:R:3:forces:R:3 energy=-23.41937999999982 stress="-0.004241888465596364 9.181576765360095e-08 9.181576765360095e-08 9.181576765360095e-08 -0.003631772689538186 9.181576765360095e-08 9.181576765360095e-08 9.181576765360095e-08 -0.003631772689538186" pbc="T T T" 
Se       3.13771450       0.00000000       0.00000000      -0.00000632      -0.00000208      -0.00000208
Se       0.00000000       3.12677100       0.00000000       0.00001257       0.00000815      -0.00000208
Se       4.70657125       1.56338500       1.56338500      -0.00001252      -0.00000838      -0.00000841
Se       1.56885675       4.69015600       1.56338500       0.00000602       0.00000208      -0.00000841
Se       0.00000000       0.00000000       3.12677100       0.00001257      -0.00000208       0.00000815
Se       3.13771450       3.12677100       3.12677100      -0.00000635       0.00000815       0.00000815
Se       1.56885675       1.56338500       4.69015600       0.00000602      -0.00000841       0.00000208
Se       4.70657125       4.69015600       4.69015600      -0.00001252       0.00000206       0.00000206
8
Lattice="6.297316 0.0 0.0 0.0 6.253541 0.0 0.0 0.0 6.253541" Properties=species:S:1:pos:R:3:forces:R:3 energy=-23.42208699999992 stress="-0.0037784024704809864 9.181576765360095e-08 9.181576765360095e-08 9.181576765360095e-08 -0.0024387186046472943 9.181576765360095e-08 9.181576765360095e-08 9.181576765360095e-08 -0.0024387186046472943" pbc="T T T" 
Se       3.14865850       0.00000000       0.00000000       0.00004029      -0.00005063      -0.00005063
Se       0.00000000       3.12677100       0.00000000      -0.00003404       0.00005659      -0.00005063
Se       4.72298725       1.56338500       1.56338500       0.00003453      -0.00005546      -0.00005554
Se       1.57432875       4.69015600       1.56338500      -0.00004109       0.00004921      -0.00005554
Se       0.00000000       0.00000000       3.12677100      -0.00003404      -0.00005063       0.00005656
Se       3.14865850       3.12677100       3.12677100       0.00004031       0.00005664       0.00005664
Se       1.57432875       1.56338500       4.69015600      -0.00004109      -0.00005548       0.00004926
Se       4.72298725       4.69015600       4.69015600       0.00003450       0.00004916       0.00004921
8
Lattice="6.319203 0.0 0.0 0.0 6.253541 0.0 0.0 0.0 6.253541" Properties=species:S:1:pos:R:3:forces:R:3 energy=-23.424105999999938 stress="-0.0028459215341910147 9.181576765360095e-08 9.181576765360095e-08 9.181576765360095e-08 -0.0011620203554239736 9.181576765360095e-08 9.181576765360095e-08 9.181576765360095e-08 -0.0011620203554239736" pbc="T T T" 
Se       3.15960201       0.00000000       0.00000000      -0.00006268       0.00000213       0.00000213
Se       0.00000000       3.12677100       0.00000000       0.00006860       0.00000381       0.00000213
Se       4.73940250       1.56338500       1.56338500      -0.00007006      -0.00000388      -0.00000388
Se       1.57980050       4.69015600       1.56338500       0.00006343      -0.00000234      -0.00000393
Se       0.00000000       0.00000000       3.12677100       0.00006860       0.00000213       0.00000381
Se       3.15960201       3.12677100       3.12677100      -0.00006248       0.00000375       0.00000375
Se       1.57980050       1.56338500       4.69015600       0.00006343      -0.00000393      -0.00000234
Se       4.73940250       4.69015600       4.69015600      -0.00006996      -0.00000231      -0.00000231
