8
Lattice="6.253541 -0.021887 0.0 -0.021887 6.253541 0.0 0.0 0.0 6.253541" Properties=species:S:1:pos:R:3:forces:R:3 energy=-23.41680099999985 stress="-0.005125523413494619 0.0012113254226539573 9.181576765360095e-08 0.0012113254226539573 -0.005125523413494619 9.181576765360095e-08 9.181576765360095e-08 9.181576765360095e-08 -0.005036921197708894" pbc="T T T" 
Se       3.12677100      -0.01094350       0.00000000       0.00000113       0.00000519       0.09238548
Se      -0.01094350       3.12677100       0.00000000       0.00000525       0.00000118       0.09238527
Se       4.68468425       1.54696975       1.56338500      -0.00000535      -0.00000131      -0.09238260
Se       1.54696975       4.68468425       1.56338500      -0.00000123      -0.00000527      -0.09238283
Se       0.00000000       0.00000000       3.12677100       0.00000316       0.00000334       0.09238273
Se       3.11582750       3.11582750       3.12677100       0.00000319       0.00000303       0.09237959
Se       1.55791325       1.55791325       4.69015600      -0.00000301      -0.00000285      -0.09238213
Se       4.67374075       4.67374075       4.69015600      -0.00000360      -0.00000375      -0.09238599
8
Lattice="6.253541 -0.06566 0.0 -0.06566 6.253541 0.0 0.0 0.0 6.253541" Properties=species:S:1:pos:R:3:forces:R:3 energy=-23.42619599999989 stress="-0.005714980641830737 0.0038994156522484317 1.836315353072019e-07 0.0038994156522484317 -0.005714980641830737 1.836315353072019e-07 1.836315353072019e-07 1.836315353072019e-07 -0.00479278307151797" pbc="T T T" 
Se       3.12677100      -0.03283001       0.00000000       0.00004947      -0.00005345       0.28171579
Se      -0.03283001       3.12677100       0.00000000      -0.00004312       0.00005965       0.28171546
Se       4.67374100       1.51414000       1.56338500       0.00005353      -0.00006199      -0.28207331
Se       1.51414000       4.67374100       1.56338500      -0.00005993       0.00005546      -0.28207336
Se       0.00000000       0.00000000       3.12677100      -0.00004206      -0.00005237       0.28207493
Se       3.09394100       3.09394100       3.12677100       0.00005944       0.00006991       0.28211367
Se       1.54697000       1.54697000       4.69015600      -0.00005968      -0.00006130      -0.28171700
Se       4.64091100       4.64091100       4.69015600       0.00005284       0.00005464      -0.28171703
8
Lattice="6.253541 -0.0437748 0.0 -0.0437748 6.253541 0.0 0.0 0.0 6.253541" Properties=species:S:1:pos:R:3:forces:R:3 energy=-23.42005399999971 stress="-0.005301534240086572 0.00269102833415939 9.181576765360095e-08 0.00269102833415939 -0.005301534240086572 9.181576765360095e-08 9.181576765360095e-08 9.181576765360095e-08 -0.0049093890964380426" pbc="T T T" 
Se       3.12677100      -0.02188740       0.00000000       0.00000291       0.00000386       0.19135015
Se      -0.02188740       3.12677100       0.00000000       0.00000360       0.00000265       0.19135025
Se       4.67921230       1.53055390       1.56338500      -0.00000357      -0.00000293      -0.19136049
Se       1.53055390       4.67921230       1.56338500      -0.00000319      -0.00000386      -0.19136041
Se       0.00000000       0.00000000       3.12677100       0.00000309       0.00000327       0.19136393
Se       3.10488360       3.10488360       3.12677100       0.00000329       0.00000311       0.19136326
Se       1.55244130       1.55244130       4.69015600      -0.00000345      -0.00000327      -0.19135318
Se       4.65732490       4.65732490       4.69015600      -0.00000316      -0.00000332      -0.19135406
8
Lattice="6.253541 -0.021887 0.0 -0.021887 6.253541 0.0 0.0 0.0 6.253541" Properties=species:S:1:pos:R:3:forces:R:3 energy=-23.41680099999985 stress="-0.005125523413494619 0.0012113254226539573 9.181576765360095e-08 0.0012113254226539573 -0.005125523413494619 9.181576765360095e-08 9.181576765360095e-08 9.181576765360095e-08 -0.005036921197708894" pbc="T T T" 
Se       3.12677100      -0.01094350       0.00000000       0.00000113       0.00000519       0.09238548
Se      -0.01094350       3.12677100       0.00000000       0.00000525       0.00000118       0.09238527
Se       4.68468425       1.54696975       1.56338500      -0.00000535      -0.00000131      -0.09238260
Se       1.54696975       4.68468425       1.56338500      -0.00000123      -0.00000527      -0.09238283
Se       0.00000000       0.00000000       3.12677100       0.00000316       0.00000334       0.09238273
Se       3.11582750       3.11582750       3.12677100       0.00000319       0.00000303       0.09237959
Se       1.55791325       1.55791325       4.69015600      -0.00000301      -0.00000285      -0.09238213
Se       4.67374075       4.67374075       4.69015600      -0.00000360      -0.00000375      -0.09238599
8
Lattice="6.253541 0.0 0.0 0.0 6.253541 0.0 0.0 0.0 6.253541" Properties=species:S:1:pos:R:3:forces:R:3 energy=-23.41599899999983 stress="-0.004748527871508933 9.181576765360095e-08 9.181576765360095e-08 9.181576765360095e-08 -0.004748527871508933 9.181576765360095e-08 9.181576765360095e-08 9.181576765360095e-08 -0.004748527871508933" pbc="T T T" 
Se       3.12677100       0.00000000       0.00000000       0.00000126       0.00000491       0.00000491
Se       0.00000000       3.12677100       0.00000000       0.00000491       0.00000126       0.00000491
Se       4.69015600       1.56338500       1.56338500      -0.00000499      -0.00000139      -0.00000139
Se       1.56338500       4.69015600       1.56338500      -0.00000139      -0.00000499      -0.00000139
Se       0.00000000       0.00000000       3.12677100       0.00000491       0.00000491       0.00000126
Se       3.12677100       3.12677100       3.12677100       0.00000121       0.00000121       0.00000121
Se       1.56338500       1.56338500       4.69015600      -0.00000139      -0.00000139      -0.00000499
Se       4.69015600       4.69015600       4.69015600      -0.00000499      -0.00000499      -0.00000499
8
Lattice="6.253541 0.021887 0.0 0.021887 6.253541 0.0 0.0 0.0 6.253541" Properties=species:S:1:pos:R:3:forces:R:3 energy=-23.41680099999985 stress="-0.005124697071585737 -0.001200123899000218 9.181576765360095e-08 -0.001200123899000218 -0.005124697071585737 9.181576765360095e-08 9.181576765360095e-08 9.181576765360095e-08 -0.005037288460779508" pbc="T T T" 
Se       3.12677100       0.01094350       0.00000000       0.00000103       0.00000509      -0.09187064
Se       0.01094350       3.12677100       0.00000000       0.00000468       0.00000087      -0.09187085
Se       4.69562775       1.57980025       1.56338500      -0.00000360      -0.00000198       0.09188252
Se       1.57980025       4.69562775       1.56338500      -0.00000262      -0.00000399       0.09188242
Se       0.00000000       0.00000000       3.12677100       0.00000414       0.00000437      -0.09179163
Se       3.13771450       3.13771450       3.12677100       0.00000190       0.00000141      -0.09179240
Se       1.56885675       1.56885675       4.69015600      -0.00000298      -0.00000239       0.09178081
Se       4.70657125       4.70657125       4.69015600      -0.00000309      -0.00000393       0.09177929
8
Lattice="6.253541 0.0437748 0.0 0.0437748 6.253541 0.0 0.0 0.0 6.253541" Properties=species:S:1:pos:R:3:forces:R:3 energy=-23.420052999999825 stress="-0.005301626055854225 -0.002689008387271011 9.181576765360095e-08 -0.002689008387271011 -0.005301626055854225 9.181576765360095e-08 9.181576765360095e-08 9.181576765360095e-08 -0.004912694464073572" pbc="T T T" 
Se       3.12677100       0.02188740       0.00000000       0.00000064       0.00000489      -0.19124602
Se       0.02188740       3.12677100       0.00000000       0.00000476       0.00000072      -0.19124625
Se       4.70109970       1.59621610       1.56338500      -0.00000427      -0.00000041       0.19123792
Se       1.59621610       4.70109970       1.56338500      -0.00000159      -0.00000527       0.19123630
Se       0.00000000       0.00000000       3.12677100      -0.00000188      -0.00000033      -0.19119514
Se       3.14865840       3.14865840       3.12677100       0.00000761       0.00000589      -0.19120753
Se       1.57432870       1.57432870       4.69015600      -0.00000779      -0.00000658       0.19121620
Se       4.72298710       4.72298710       4.69015600       0.00000193       0.00000051       0.19120406
8
Lattice="6.253541 0.06566 0.0 0.06566 6.253541 0.0 0.0 0.0 6.253541" Properties=species:S:1:pos:R:3:forces:R:3 energy=-23.426196999999775 stress="-0.005714154299921855 -0.0038973038895923993 5.508946059216056e-07 -0.0038973038895923993 -0.005714154299921855 5.508946059216056e-07 5.508946059216056e-07 5.508946059216056e-07 -0.0047891104408118255" pbc="T T T" 
Se       3.12677100       0.03283001       0.00000000      -0.00017761       0.00022019      -0.28182661
Se       0.03283001       3.12677100       0.00000000       0.00018291      -0.00021497      -0.28182856
Se       4.70657100       1.61263000       1.56338500       0.00003852      -0.00002376       0.28186263
Se       1.61263000       4.70657100       1.56338500      -0.00004404       0.00001818       0.28185903
Se       0.00000000       0.00000000       3.12677100       0.00016823       0.00020831      -0.28190878
Se       3.15960101       3.15960101       3.12677100      -0.00011341      -0.00015342      -0.28178784
Se       1.57980000       1.57980000       4.69015600      -0.00004258      -0.00002072       0.28189014
Se       4.73940100       4.73940100       4.69015600       0.00003695       0.00001517       0.28185469
