2
Lattice="3.44237516 0.0 0.0 0.0 3.442375161 0.0 0.0 0.0 3.44237516" Properties=species:S:1:pos:R:3:forces:R:3 energy=-6.4206120000000055 stress="0.0011551341728499535 -0.0 0.0 -0.0 0.0011551341728499535 0.0 0.0 0.0 0.0011551341728499535" pbc="T T T" 
Se       0.00000000       0.00000000       0.00000000       0.00000000       0.00000000      -0.00000000
Se       1.72118758       1.72118758       1.72118758      -0.00000000      -0.00000000       0.00000000
