8
Lattice="30.0 0.0 0.0 0.0 30.0 0.0 0.0 0.0 30.0" Properties=species:S:1:pos:R:3:forces:R:3 energy=-25.28625699999975 stress="5.508946059216056e-07 6.427103735752066e-07 0.0 6.427103735752066e-07 -1.560868050111216e-06 -1.836315353072019e-07 0.0 -1.836315353072019e-07 -3.672630706144038e-07" pbc="T T T" 
Se      -1.02539448      -2.47839534       0.57536256       0.00973034      -0.00528380       0.00349218
Se       2.49144864       1.03576494      -0.55228071       0.00311710      -0.00536746       0.00328960
Se       1.04112240      -2.47391565      -0.57026394      -0.00151201      -0.00098221       0.00417205
Se       2.48520486      -1.02264504       0.60808377      -0.00690735       0.00203796      -0.00462151
Se      -1.02129297       2.47591431      -0.59865648       0.00321326       0.00365459      -0.00165245
Se      -2.47499814      -1.03460253      -0.60494547      -0.00149201       0.00299415      -0.00933118
Se       1.01675811       2.47965129       0.59606442      -0.00295114       0.00915022       0.00188452
Se      -2.49029295       1.02659922       0.54935739      -0.00224128       0.00168675       0.00282724
