1
Lattice="2.825778259 0.0 0.0 0.0 2.825778259 0.0 0.0 0.0 2.825778258" Properties=species:S:1:pos:R:3:forces:R:3 energy=-3.5416490000000067 stress="-0.0012191297629045134 -0.0 0.0 -0.0 -0.0012191297629045134 0.0 0.0 0.0 -0.0012191297629045134" pbc="T T T" 
Se       0.00000000       0.00000000       0.00000000      -0.00000000      -0.00000000      -0.00000000
