1
Lattice="30.0 0.0 0.0 0.0 30.0 0.0 0.0 0.0 30.0" Properties=species:S:1:pos:R:3:forces:R:3 energy=0.0 stress="-0.0 -0.0 0.0 -0.0 -0.0 -0.0 0.0 -0.0 -0.0" pbc="T T T" 
Mo       0.00000000       0.00000000       0.00000000       0.00000000      -0.00000000      -0.00000000
2
Lattice="20.0 0.0 0.0 0.0 20.0 0.0 0.0 0.0 20.0" Properties=species:S:1:pos:R:3:forces:R:3 energy=-8.68100899999996 stress="1.377236514804014e-06 -0.0 9.181576765360095e-08 -0.0 -3.672630706144038e-07 0.0 9.181576765360095e-08 0.0 -4.5907883826800474e-07" pbc="T T T" 
Mo      -0.43896322       1.04490604       0.15097424      -0.00592992       0.00019751      -0.00063519
Mo      -1.75381148       1.09599676       0.04890820       0.00771118      -0.00016537       0.00034892
