8
Lattice="5.633708043 -0.0 -0.0 -0.0 5.633708043 0.0 -0.0 0.0 5.63370804" Properties=species:S:1:pos:R:3:forces:R:3 energy=-22.38818900000001 stress="-0.0005601679984546193 0.0 0.0 0.0 -0.0005601679984546193 -0.0 0.0 -0.0 -0.0005601679984546193" pbc="T T T" 
Mo       2.81685407      -0.00000011       0.00000003       0.00005705       0.00030450       0.00023932
Mo      -0.00000005       2.81685413       0.00000003      -0.00008181      -0.00026158       0.00025500
Mo       4.22528104       1.40842710       1.40842687      -0.00080368      -0.00046457       0.00072094
Mo       1.40842701       4.22528095       1.40842687       0.00079920       0.00045092       0.00065627
Mo      -0.00000005      -0.00000011       2.81685399      -0.00001936       0.00040240      -0.00022685
Mo       2.81685407       2.81685413       2.81685399       0.00004160      -0.00037096      -0.00023958
Mo       1.40842701       1.40842710       4.22528117       0.00080643      -0.00050229      -0.00077382
Mo       4.22528104       4.22528095       4.22528117      -0.00079941       0.00044161      -0.00063128
