3
Lattice="30.0 0.0 0.0 0.0 30.0 0.0 0.0 0.0 30.0" Properties=species:S:1:pos:R:3:forces:R:3 energy=-5.427612999999951 stress="-1.836315353072019e-07 -0.0 -0.0 -0.0 -9.181576765360095e-07 9.181576765360095e-08 -0.0 9.181576765360095e-08 6.427103735752066e-07" pbc="T T T" 
Mo      -0.00000348       0.00013692       1.66375572      -0.00008791      -0.00073071      -0.01569219
Mo       0.00000240       0.67076658      -0.83242317       0.00003389       0.02558736       0.00326836
Mo       0.00000072      -0.67086567      -0.83264355       0.00005582      -0.02505661       0.00554327
