8
Lattice="6.253541 0.0 0.0 0.0 6.253541 0.0 0.0 0.0 6.253541" Properties=species:S:1:pos:R:3:forces:R:3 energy=-23.41599899999983 stress="-0.004747793345367704 9.181576765360095e-08 9.181576765360095e-08 9.181576765360095e-08 -0.004747793345367704 9.181576765360095e-08 9.181576765360095e-08 9.181576765360095e-08 -0.004747793345367704" pbc="T T T" 
Se       3.12677100       0.00000000       0.00000000       0.00000486       0.00000129       0.00000129
Se       0.00000000       3.12677100       0.00000000       0.00000129       0.00000486       0.00000129
Se       4.69015600       1.56338500       1.56338500      -0.00000134      -0.00000501      -0.00000504
Se       1.56338500       4.69015600       1.56338500      -0.00000501      -0.00000134      -0.00000504
Se       0.00000000       0.00000000       3.12677100       0.00000129       0.00000129       0.00000486
Se       3.12677100       3.12677100       3.12677100       0.00000481       0.00000481       0.00000481
Se       1.56338500       1.56338500       4.69015600      -0.00000501      -0.00000501      -0.00000134
Se       4.69015600       4.69015600       4.69015600      -0.00000131      -0.00000131      -0.00000131
8
Lattice="6.253541 0.0 0.0 0.0 6.253541 0.0 0.0 0.0 6.253541" Properties=species:S:1:pos:R:3:forces:R:3 energy=-23.41599899999983 stress="-0.004747793345367704 9.181576765360095e-08 9.181576765360095e-08 9.181576765360095e-08 -0.004747793345367704 9.181576765360095e-08 9.181576765360095e-08 9.181576765360095e-08 -0.004747793345367704" pbc="T T T" 
Se       3.12677100       0.00000000       0.00000000       0.00000486       0.00000129       0.00000129
Se       0.00000000       3.12677100       0.00000000       0.00000129       0.00000486       0.00000129
Se       4.69015600       1.56338500       1.56338500      -0.00000134      -0.00000501      -0.00000504
Se       1.56338500       4.69015600       1.56338500      -0.00000501      -0.00000134      -0.00000504
Se       0.00000000       0.00000000       3.12677100       0.00000129       0.00000129       0.00000486
Se       3.12677100       3.12677100       3.12677100       0.00000481       0.00000481       0.00000481
Se       1.56338500       1.56338500       4.69015600      -0.00000501      -0.00000501      -0.00000134
Se       4.69015600       4.69015600       4.69015600      -0.00000131      -0.00000131      -0.00000131
