1
Lattice="30.0 0.0 0.0 0.0 30.0 0.0 0.0 0.0 30.0" Properties=species:S:1:pos:R:3:forces:R:3 energy=0.0 stress="-0.0 -0.0 0.0 -0.0 -0.0 -0.0 0.0 -0.0 -0.0" pbc="T T T" 
Se       0.00000000       0.00000000       0.00000000      -0.00000000      -0.00000000       0.00000000
