4
Lattice="4.319385363 -0.000441079 0.000637636 -0.000441079 4.318592807 -0.000460083 0.000637636 -0.000460083 4.319472289" Properties=species:S:1:pos:R:3:forces:R:3 energy=-12.221826999999848 stress="0.0008212920416614605 -4.526517345322526e-05 -0.00024817801996768337 -4.526517345322526e-05 0.0005424475552974744 7.290171951695916e-05 -0.00024817801996768337 7.290171951695916e-05 0.0008076114922810739" pbc="T T T" 
Se       0.02070774       0.02760088       0.02244930      -0.00389823      -0.00205858      -0.00391610
Se       2.15933262       2.15869979       0.02278475      -0.00063455      -0.00209280       0.01505445
Se       0.02071870       2.15678974       2.16387891       0.01457682      -0.00037078      -0.00389635
Se       2.15767364       0.02704726       2.15352964       0.00060120       0.01418938       0.00548105
