3
Lattice="30.0 0.0 0.0 0.0 30.0 0.0 0.0 0.0 30.0" Properties=species:S:1:pos:R:3:forces:R:3 energy=-7.71631699999989 stress="-6.427103735752066e-07 -0.0 4.5907883826800474e-07 -0.0 -9.181576765360095e-08 0.0 4.5907883826800474e-07 0.0 -2.754473029608028e-07" pbc="T T T" 
Se      -0.46877433       0.00000000      -1.29556575       0.00188662      -0.00000000       0.00045866
Se      -0.89068539       0.00000000       1.06781913      -0.00476456       0.00000000       0.00441343
Se       1.36716066       0.00000000       0.25094376       0.00258758       0.00000000       0.00309823
