6
Lattice="30.0 0.0 0.0 0.0 30.0 0.0 0.0 0.0 30.0" Properties=species:S:1:pos:R:3:forces:R:3 energy=-18.641721999999845 stress="-0.0 -1.836315353072019e-07 3.672630706144038e-07 -1.836315353072019e-07 -0.0 -0.0 3.672630706144038e-07 -0.0 0.0" pbc="T T T" 
Se      -2.05633740       0.02677452       0.71722185      -0.00076336       0.00073739       0.00398632
Se       1.07186334      -1.84691040       0.43286091      -0.00238318       0.00020409      -0.00600643
Se       1.12797060       1.80715089       0.46721580      -0.00010642      -0.00058984      -0.00321961
Se      -1.06714731       1.85296491      -0.42846498       0.00074338      -0.00049234      -0.00010048
Se       2.05680549      -0.02348925      -0.71971416       0.00191737       0.00003977       0.00674079
Se      -1.12353039      -1.80541563      -0.46319694       0.00390227       0.00009220      -0.00053962
