2
Lattice="30.0 0.0 0.0 0.0 30.0 0.0 0.0 0.0 30.0" Properties=species:S:1:pos:R:3:forces:R:3 energy=-4.22032999999999 stress="-9.181576765360095e-08 0.0 -0.0 0.0 -9.181576765360095e-08 -0.0 -0.0 -0.0 -0.0" pbc="T T T" 
Se      -1.30161045       0.08236875      -0.09747399      -0.00077724      -0.00061205       0.00180710
Se      -2.19829311      -0.78533184       1.73040117       0.00030516       0.00026012      -0.00001172
