4
Lattice="3.61696147 0.092553935 -2e-09 0.178771313 7.176396148 -8e-09 -2e-09 -4e-09 3.730777118" Properties=species:S:1:pos:R:3:forces:R:3 energy=-13.884592999999995 stress="0.0005172900349603877 -0.00048396091130213057 0.0 -0.00048396091130213057 0.00031869252952564884 0.0 0.0 0.0 0.0001547095684963176" pbc="T T T" 
Se      -0.21163851      -2.63624561       1.86538857       0.00392374      -0.00383948       0.00000003
Se       1.83200018      -3.34120380      -0.00000000       0.00685150       0.00365048      -0.00000003
Se       0.11489693       0.20553854       0.00000003       0.00524557      -0.00012976      -0.00000005
Se       1.68717519       1.00373428       1.86538854       0.00427189      -0.00991096       0.00000003
