48
Lattice="13.176256 0.0 0.0 0.0 11.560944 0.0 0.0 0.0 29.53005" Properties=species:S:1:pos:R:3:forces:R:3 energy=-230.12930400000005 stress="-0.0033702813832607297 -4.223525312065643e-06 3.94807800910484e-06 -4.223525312065643e-06 -0.0011454017014786717 -5.508946059216056e-07 3.94807800910484e-06 -5.508946059216056e-07 -0.00018904866559876435" pbc="T T T" 
Mo      -2.17042074       5.48644611       2.95329159       0.01013462       0.03099190      -0.01631301
Se      -2.17083137       3.56686743       4.65618746       0.00234819      -0.01784533       0.01766896
Se      -2.17094329       3.56681326       1.24947562       0.00231003      -0.01656366      -0.00202271
Mo      -0.52366635       2.59589960       2.95339409       0.00146969       0.02413798      -0.01717417
Se      -0.52357697       0.67639450       4.65621138       0.00023114      -0.02046269       0.01933645
Se      -0.52364625       0.67620202       1.24957588      -0.00007942      -0.01920483      -0.00361032
Mo      -2.17039991      11.26693310       2.95330154       0.00916598       0.02937540      -0.01632933
Se      -2.17075763       9.34731893       4.65622602       0.00164558      -0.01693838       0.01914911
Se      -2.17091712       9.34727755       1.24953749       0.00149628      -0.01545822      -0.00457584
Mo      -0.52370247       8.37637222       2.95330130       0.00357602       0.02556852      -0.01625850
Se      -0.52355143       6.45707192       4.65617553      -0.00036523      -0.02246828       0.01930171
Se      -0.52361876       6.45693747       1.24955028       0.00024775      -0.02302899      -0.00394546
Mo       1.12281401       5.48626976       2.95351811       0.00053590       0.02884757      -0.01660408
Se       1.12380331       3.56686343       4.65633803      -0.00636597      -0.02029408       0.01565254
Se       1.12367528       3.56680171       1.24934649      -0.00486412      -0.02089171       0.00039045
Mo       2.77021593       2.59643393       2.95354203       0.00394914       0.03085409      -0.01949236
Se       2.77053094       0.67684416       4.65604669      -0.00298557      -0.01408882       0.02325010
Se       2.77046896       0.67673712       1.24970894      -0.00150389      -0.01441816      -0.00720464
Mo       1.12283248      11.26667780       2.95347149       0.00068564       0.02850202      -0.01645223
Se       1.12386766       9.34726963       4.65627806      -0.00754598      -0.02019833       0.01673289
Se       1.12376751       9.34719514       1.24936397      -0.00558436      -0.02105124      -0.00054196
Mo       2.77028628       8.37695386       2.95351808       0.00308360       0.03162449      -0.01944528
Se       2.77054338       6.45755521       4.65598214      -0.00350333      -0.01666857       0.02460474
Se       2.77049111       6.45745490       1.24979272      -0.00126758      -0.01672510      -0.00642048
Mo       4.41746464       5.48643502       2.95352192       0.01076038       0.03214828      -0.01864775
Se       4.41701259       3.56713911       4.65623494       0.00233418      -0.01846716       0.02016339
Se       4.41699903       3.56710087       1.24950244       0.00178206      -0.01780499      -0.00359080
Mo       6.06381695       2.59618844       2.95334495       0.00576192       0.02626071      -0.01807015
Se       6.06389038       0.67668758       4.65611328       0.00316698      -0.02139479       0.02101741
Se       6.06392847       0.67666079       1.24952036       0.00217132      -0.02038751      -0.00399454
Mo       4.41752089      11.26694480       2.95342332       0.01009058       0.03045516      -0.01751541
Se       4.41700025       9.34761157       4.65623444       0.00205845      -0.01760378       0.02210385
Se       4.41700337       9.34751735       1.24953687       0.00212507      -0.01724627      -0.00585628
Mo       6.06372125       8.37671390       2.95334640       0.00781801       0.02783312      -0.01866287
Se       6.06377379       6.45740681       4.65605065       0.00389082      -0.02450015       0.02130051
Se       6.06382348       6.45740930       1.24961185       0.00258164      -0.02490448      -0.00429531
Mo       7.71020398       5.48649240       2.95318203       0.00468239       0.02924252      -0.01457371
Se       7.71137015       3.56699271       4.65631497      -0.00558037      -0.01889293       0.01473175
Se       7.71131946       3.56698300       1.24934548      -0.00450889      -0.01996742       0.00126779
Mo       9.35803633       2.59669686       2.95320377       0.00290329       0.03166049      -0.01684957
Se       9.35838052       0.67680633       4.65593397      -0.00202631      -0.01377199       0.02088716
Se       9.35834630       0.67671760       1.24971166       0.00042829      -0.01438504      -0.00535615
Mo       7.71025052      11.26699473       2.95316659       0.00545156       0.02705449      -0.01527832
Se       7.71134304       9.34745282       4.65628680      -0.00490538      -0.01880945       0.01580298
Se       7.71130325       9.34737613       1.24935759      -0.00413410      -0.01902010       0.00036235
Mo       9.35805114       8.37718730       2.95317326       0.00197754       0.03278049      -0.01594470
Se       9.35837880       6.45744711       4.65585764      -0.00247911      -0.01645573       0.02285937
Se       9.35830709       6.45742060       1.24970321       0.00031910      -0.01721547      -0.00631401
