4
Lattice="2.573716838 0.0 0.0 0.0 5.390983196 -0.0 0.0 -0.0 4.694621518" Properties=species:S:1:pos:R:3:forces:R:3 energy=-18.325353999999948 stress="-0.0002162261328242302 0.0 -0.0 0.0 3.158462407283872e-05 -0.0 -0.0 -0.0 0.00021576705398596222" pbc="T T T" 
Mo       0.00000000       0.78212644       1.17365538       0.00000000       0.00396924       0.00000005
Mo       1.28685842       3.48059757       1.17365538      -0.00000000      -0.00213391       0.00000003
Mo       1.28685842       1.91190813       3.52096614      -0.00000000      -0.00718711      -0.00000003
Mo       0.00000000       4.60733311       3.52096614       0.00000000       0.00444919      -0.00000003
