2
Lattice="3.175111 0.0 0.0 0.0 3.175111 0.0 0.0 0.0 3.175111" Properties=species:S:1:pos:R:3:forces:R:3 energy=-9.790147999999988 stress="-0.005028382331317109 -0.00029775853450062786 0.00029775853450062786 -0.00029775853450062786 -0.005028382331317109 -0.00029775853450062786 0.00029775853450062786 -0.00029775853450062786 -0.005028382331317109" pbc="T T T" 
Mo       0.00635022      -0.00635022       0.00635022      -0.00943960       0.00943960      -0.00943960
Mo       1.59390572       1.58120528       1.59390572      -0.00943960       0.00943960      -0.00943960
