8
Lattice="4.522997712 -2e-09 -0.0 -2e-09 7.255429422 0.000271188 -0.0 0.000156078 4.523224741" Properties=species:S:1:pos:R:3:forces:R:3 energy=-32.675968999999895 stress="-0.0001484660962958727 0.0 0.0 0.0 -0.0004004085627373537 3.626722822317237e-05 0.0 3.626722822317237e-05 -3.645085975847958e-05" pbc="T T T" 
Mo       2.26149886       1.12643311      -0.00008385      -0.00000000      -0.00609711       0.00201675
Mo      -0.00000000       4.75438695       0.00028739       0.00000000       0.00529562       0.00025600
Mo      -0.00000000       1.12670162       2.26157821      -0.00000000      -0.00739894       0.00224768
Mo       2.26149885       4.75441239       2.26190525      -0.00000000       0.00561303      -0.00012658
Mo       2.26149886       2.50104491       2.26154156       0.00000003       0.00237076       0.00083386
Mo      -0.00000000       6.12956324       2.26188668      -0.00000000      -0.00417802       0.00066162
Mo      -0.00000000       2.50113037       4.52320474      -0.00000003       0.00209236      -0.00056698
Mo       2.26149885       6.12977514       4.52344903      -0.00000000      -0.00551198       0.00159115
