2
Lattice="3.342375 0.0 0.0 0.0 3.442375 0.0 0.0 0.0 3.442375" Properties=species:S:1:pos:R:3:forces:R:3 energy=-6.411814999999933 stress="-0.02261073457391108 0.00010990347388136032 -0.00010990347388136032 0.00010990347388136032 -0.013898887275866804 4.388793693842125e-05 -0.00010990347388136032 4.388793693842125e-05 -0.013898887275866804" pbc="T T T" 
Se       0.00334238      -0.00344238       0.00344238      -0.00142912       0.00128807      -0.00128807
Se       1.67452987       1.71774512       1.72462988      -0.00142912       0.00128807      -0.00128807
2
Lattice="3.542375 0.0 0.0 0.0 3.442375 0.0 0.0 0.0 3.442375" Properties=species:S:1:pos:R:3:forces:R:3 energy=-6.4062719999999445 stress="0.02622653131987753 0.00021402255440054378 -0.00021402255440054378 0.00021402255440054378 0.012046779610758366 0.00020933995025021018 -0.00021402255440054378 0.00020933995025021018 0.012046871426526018" pbc="T T T" 
Se       0.00708475      -0.00688475       0.00688475      -0.00667098       0.00277401      -0.00277401
Se       1.77827225       1.71430275       1.72807225      -0.00667098       0.00277401      -0.00277401
2
Lattice="3.742375 0.0 0.0 0.0 3.442375 0.0 0.0 0.0 3.442375" Properties=species:S:1:pos:R:3:forces:R:3 energy=-6.296929999999975 stress="0.06228873493387941 0.00011128071039616434 -0.00011128071039616434 0.00011128071039616434 0.030606327068489605 -0.00020888087141194214 -0.00011128071039616434 -0.00020888087141194214 0.030606327068489605" pbc="T T T" 
Se       0.01122713      -0.01032713       0.01032713       0.00648031       0.00054782      -0.00054782
Se       1.88241463       1.71086037       1.73151463       0.00648031       0.00054782      -0.00054782
2
Lattice="3.942375 0.0 0.0 0.0 3.442375 0.0 0.0 0.0 3.442375" Properties=species:S:1:pos:R:3:forces:R:3 energy=-6.115427999999952 stress="0.09097748969492357 -0.0005361122673293759 0.0005361122673293759 -0.0005361122673293759 0.03798684573555666 -4.067438507054522e-05 0.0005361122673293759 -4.067438507054522e-05 0.03798684573555666" pbc="T T T" 
Se       0.01576950      -0.01376950       0.01376950       0.00700217      -0.00209722       0.00209722
Se       1.98695700       1.70741800       1.73495700       0.00700217      -0.00209722       0.00209722
2
Lattice="4.142375 0.0 0.0 0.0 3.442375 0.0 0.0 0.0 3.442375" Properties=species:S:1:pos:R:3:forces:R:3 energy=-5.882469000000015 stress="0.10057866451846062 -0.00022825399838685194 0.00022825399838685194 -0.00022825399838685194 0.04824946134927025 4.4897910382610864e-05 0.00022825399838685194 4.4897910382610864e-05 0.04824946134927025" pbc="T T T" 
Se       0.02071188      -0.01721188       0.01721188      -0.00183762       0.00339231      -0.00339231
Se       2.09189938       1.70397562       1.73839938      -0.00183762       0.00339231      -0.00339231
2
Lattice="4.342375 0.0 0.0 0.0 3.442375 0.0 0.0 0.0 3.442375" Properties=species:S:1:pos:R:3:forces:R:3 energy=-5.650041999999985 stress="0.09862317229897422 -0.0002215514473481391 0.0002215514473481391 -0.0002215514473481391 0.06086705958753106 0.0004285960034070092 0.0002215514473481391 0.0004285960034070092 0.06086705958753106" pbc="T T T" 
Se       0.02605425      -0.02065425       0.02065425       0.00284421       0.01151160      -0.01151160
Se       2.19724175       1.70053325       1.74184175       0.00284421       0.01151160      -0.01151160
2
Lattice="4.542375 0.0 0.0 0.0 3.442375 0.0 0.0 0.0 3.442375" Properties=species:S:1:pos:R:3:forces:R:3 energy=-5.428178000000003 stress="0.08682163260361862 -4.985596183590532e-05 4.985596183590532e-05 -4.985596183590532e-05 0.07510860330828109 -0.00011678965645538041 4.985596183590532e-05 -0.00011678965645538041 0.07510860330828109" pbc="T T T" 
Se       0.03179663      -0.02409663       0.02409663      -0.00492965       0.01826777      -0.01826777
Se       2.30298413       1.69709087       1.74528413      -0.00492965       0.01826777      -0.01826777
2
Lattice="4.742375 0.0 0.0 0.0 3.442375 0.0 0.0 0.0 3.442375" Properties=species:S:1:pos:R:3:forces:R:3 energy=-5.228711999999973 stress="0.0845183422562604 -0.0002162261328242302 0.0002162261328242302 -0.0002162261328242302 0.08282461679035441 0.0003903088282954576 0.0002162261328242302 0.0003903088282954576 0.08282461679035441" pbc="T T T" 
Se       0.03793900      -0.02753900       0.02753900       0.00235606       0.02405252      -0.02405252
Se       2.40912650       1.69364850       1.74872650       0.00235606       0.02405252      -0.02405252
2
Lattice="4.942375 0.0 0.0 0.0 3.442375 0.0 0.0 0.0 3.442375" Properties=species:S:1:pos:R:3:forces:R:3 energy=-5.02076999999997 stress="0.08600667584992526 -7.372806142584156e-05 7.372806142584156e-05 -7.372806142584156e-05 0.08613815602920522 0.000234222023284336 7.372806142584156e-05 0.000234222023284336 0.08613815602920522" pbc="T T T" 
Se       0.04448137      -0.03098137       0.03098137      -0.00135106       0.01836562      -0.01836562
Se       2.51566888       1.69020613       1.75216888      -0.00135106       0.01836562      -0.01836562
2
Lattice="5.242375 0.0 0.0 0.0 3.442375 0.0 0.0 0.0 3.442375" Properties=species:S:1:pos:R:3:forces:R:3 energy=-4.731159999999932 stress="0.07739995760584437 -0.00014056994027766305 0.00014056994027766305 -0.00014056994027766305 0.09584528624861453 0.0002625012797216451 0.00014056994027766305 0.0002625012797216451 0.09584528624861453" pbc="T T T" 
Se       0.05242375      -0.03442375       0.03442375      -0.00055500       0.02713509      -0.02713509
Se       2.67361125       1.68676375       1.75561125      -0.00055500       0.02713509      -0.02713509
2
Lattice="5.642375 0.0 0.0 0.0 3.442375 0.0 0.0 0.0 3.442375" Properties=species:S:1:pos:R:3:forces:R:3 energy=-4.385518999999931 stress="0.06914792367220933 1.2303312865582527e-05 -1.2303312865582527e-05 1.2303312865582527e-05 0.10057600186119865 -9.962010790415702e-05 -1.2303312865582527e-05 -9.962010790415702e-05 0.10057600186119865" pbc="T T T" 
Se       0.06206612      -0.03786613       0.03786613       0.00613851       0.01283765      -0.01283765
Se       2.88325363       1.68332138       1.75905363       0.00613851       0.01283765      -0.01283765
2
Lattice="6.042375 0.0 0.0 0.0 3.442375 0.0 0.0 0.0 3.442375" Properties=species:S:1:pos:R:3:forces:R:3 energy=-4.064889999999991 stress="0.06119869814029587 1.3405102077425739e-05 -1.3405102077425739e-05 1.3405102077425739e-05 0.10000564231253449 1.560868050111216e-06 -1.3405102077425739e-05 1.560868050111216e-06 0.10000564231253449" pbc="T T T" 
Se       0.07250850      -0.04130850       0.04130850       0.00277309       0.00553289      -0.00553289
Se       3.09369600       1.67987900       1.76249600       0.00277309       0.00553289      -0.00553289
2
Lattice="6.442375 0.0 0.0 0.0 3.442375 0.0 0.0 0.0 3.442375" Properties=species:S:1:pos:R:3:forces:R:3 energy=-3.8103830000000016 stress="0.04852114420575727 1.8914048136641793e-05 -1.8914048136641793e-05 1.8914048136641793e-05 0.1020269664374285 2.5800230710661865e-05 -1.8914048136641793e-05 2.5800230710661865e-05 0.1020269664374285" pbc="T T T" 
Se       0.08375088      -0.04475088       0.04475088      -0.00080275      -0.00899259       0.00899259
Se       3.30493838       1.67643663       1.76593838      -0.00080275      -0.00899259       0.00899259
2
Lattice="6.842375 0.0 0.0 0.0 3.442375 0.0 0.0 0.0 3.442375" Properties=species:S:1:pos:R:3:forces:R:3 energy=-3.597091999999975 stress="0.04157041514707671 4.223525312065643e-06 -4.223525312065643e-06 4.223525312065643e-06 0.10050769093006437 7.345261412288076e-07 -4.223525312065643e-06 7.345261412288076e-07 0.10050769093006437" pbc="T T T" 
Se       0.09579325      -0.04819325       0.04819325      -0.00002795      -0.01850757       0.01850757
Se       3.51698075       1.67299425       1.76938075      -0.00002795      -0.01850757       0.01850757
2
Lattice="7.242375 0.0 0.0 0.0 3.442375 0.0 0.0 0.0 3.442375" Properties=species:S:1:pos:R:3:forces:R:3 energy=-3.409238999999957 stress="0.035648940843793026 -5.692577594523258e-06 5.692577594523258e-06 -5.692577594523258e-06 0.0979682504283011 6.059840665137662e-06 5.692577594523258e-06 6.059840665137662e-06 0.0979682504283011" pbc="T T T" 
Se       0.10863562      -0.05163562       0.05163562       0.00022271      -0.03469221       0.03469221
Se       3.72982313       1.66955188       1.77282313       0.00022271      -0.03469221       0.03469221
2
Lattice="7.642375 0.0 0.0 0.0 3.442375 0.0 0.0 0.0 3.442375" Properties=species:S:1:pos:R:3:forces:R:3 energy=-3.267496999999935 stress="0.026636580538218515 -1.3313286309772136e-05 1.3313286309772136e-05 -1.3313286309772136e-05 0.09666171205459034 5.600761826869658e-06 1.3313286309772136e-05 5.600761826869658e-06 0.09666171205459034" pbc="T T T" 
Se       0.12227800      -0.05507800       0.05507800       0.00032712      -0.03217702       0.03217702
Se       3.94346550       1.66610950       1.77626550       0.00032712      -0.03217705       0.03217705
2
Lattice="8.042375 0.0 0.0 0.0 3.442375 0.0 0.0 0.0 3.442375" Properties=species:S:1:pos:R:3:forces:R:3 energy=-3.155224999999973 stress="0.022241818819478905 -2.8738335275577095e-05 2.8738335275577095e-05 -2.8738335275577095e-05 0.09374187882743819 -1.1936049794968124e-06 2.8738335275577095e-05 -1.1936049794968124e-06 0.09374187882743819" pbc="T T T" 
Se       0.13672038      -0.05852038       0.05852038       0.00088644      -0.03123294       0.03123294
Se       4.15790788       1.66266713       1.77970788       0.00088644      -0.03123302       0.03123302
2
Lattice="8.442375 0.0 0.0 0.0 3.442375 0.0 0.0 0.0 3.442375" Properties=species:S:1:pos:R:3:forces:R:3 energy=-3.0647239999999556 stress="0.016755826702176253 1.2854207471504133e-05 -1.2854207471504133e-05 1.2854207471504133e-05 0.08996806714533988 -1.083426058312491e-05 -1.2854207471504133e-05 -1.083426058312491e-05 0.08996806714533988" pbc="T T T" 
Se       0.15196275      -0.06196275       0.06196275      -0.00036615      -0.03351138       0.03351138
Se       4.37315025       1.65922475       1.78315025      -0.00036615      -0.03351138       0.03351138
2
Lattice="8.842375 0.0 0.0 0.0 3.442375 0.0 0.0 0.0 3.442375" Properties=species:S:1:pos:R:3:forces:R:3 energy=-2.999333999999976 stress="0.009909583987085496 1.358873361273294e-05 -1.358873361273294e-05 1.358873361273294e-05 0.0855332737519033 2.267849461043943e-05 -1.358873361273294e-05 2.267849461043943e-05 0.0855332737519033" pbc="T T T" 
Se       0.16800513      -0.06540513       0.06540513      -0.00070456      -0.02489108       0.02489108
Se       4.58919263       1.65578238       1.78659263      -0.00070425      -0.02488885       0.02488885
2
Lattice="9.242375 0.0 0.0 0.0 3.442375 0.0 0.0 0.0 3.442375" Properties=species:S:1:pos:R:3:forces:R:3 energy=-2.9645590000000084 stress="0.004358769937819397 -1.6526838177648169e-06 1.6526838177648169e-06 -1.6526838177648169e-06 0.08178186511711247 -1.1017892118432113e-05 1.6526838177648169e-06 -1.1017892118432113e-05 0.08178186511711247" pbc="T T T" 
Se       0.18484750      -0.06884750       0.06884750      -0.00154868      -0.02340427       0.02340427
Se       4.80603500       1.65234000       1.79003500      -0.00154868      -0.02340427       0.02340427
2
Lattice="9.642375 0.0 0.0 0.0 3.442375 0.0 0.0 0.0 3.442375" Properties=species:S:1:pos:R:3:forces:R:3 energy=-2.955097999999907 stress="0.001305895663337166 5.968024897484061e-06 -5.968024897484061e-06 5.968024897484061e-06 0.07780532422003501 -7.354442989053436e-05 -5.968024897484061e-06 -7.354442989053436e-05 0.07780532422003501" pbc="T T T" 
Se       0.20248988      -0.07228988       0.07228988       0.00001414      -0.02113524       0.02113524
Se       5.02367738       1.64889763       1.79347738       0.00001414      -0.02113527       0.02113527
2
Lattice="10.042375 0.0 0.0 0.0 3.442375 0.0 0.0 0.0 3.442375" Properties=species:S:1:pos:R:3:forces:R:3 energy=-2.9571229999999105 stress="0.00018454969298373788 2.644294108423707e-05 -2.644294108423707e-05 2.644294108423707e-05 0.07483618592565286 -5.013140913886612e-05 -2.644294108423707e-05 -5.013140913886612e-05 0.07483618592565286" pbc="T T T" 
Se       0.22093225      -0.07573225       0.07573225      -0.00151898      -0.01428217       0.01428217
Se       5.24211975       1.64545525       1.79691975      -0.00151898      -0.01428217       0.01428217
2
Lattice="10.442375 0.0 0.0 0.0 3.442375 0.0 0.0 0.0 3.442375" Properties=species:S:1:pos:R:3:forces:R:3 energy=-2.9520539999999755 stress="-1.643502240999457e-05 4.205162158534923e-05 -4.205162158534923e-05 4.205162158534923e-05 0.07195280355825918 1.2578760168543329e-05 -4.205162158534923e-05 1.2578760168543329e-05 0.07195280355825918" pbc="T T T" 
Se       0.24017463      -0.07917462       0.07917462       0.00062334      -0.00893443       0.00893443
Se       5.46136212       1.64201288       1.80036213       0.00062334      -0.00893443       0.00893443
2
Lattice="10.842375 0.0 0.0 0.0 3.442375 0.0 0.0 0.0 3.442375" Properties=species:S:1:pos:R:3:forces:R:3 energy=-2.9516479999999774 stress="9.365208300667296e-06 -1.643502240999457e-05 1.643502240999457e-05 -1.643502240999457e-05 0.06957863143827236 -1.1109707886085715e-05 1.643502240999457e-05 -1.1109707886085715e-05 0.06957863143827236" pbc="T T T" 
Se       0.26021700      -0.08261700       0.08261700      -0.00021340      -0.00453144       0.00453144
Se       5.68140450       1.63857050       1.80380450      -0.00021340      -0.00453144       0.00453144
2
Lattice="11.242375 0.0 0.0 0.0 3.442375 0.0 0.0 0.0 3.442375" Properties=species:S:1:pos:R:3:forces:R:3 energy=-2.9521239999999125 stress="-2.2586678842785834e-05 -0.0 0.0 -0.0 0.06714156551744284 0.0 0.0 0.0 0.06714156551744284" pbc="T T T" 
Se       0.28105938      -0.08605938       0.08605938       0.00327834      -0.00000000      -0.00000000
Se       5.90224687       1.63512813       1.80724688       0.00327834      -0.00000000       0.00000000
2
Lattice="11.642375 0.0 0.0 0.0 3.442375 0.0 0.0 0.0 3.442375" Properties=species:S:1:pos:R:3:forces:R:3 energy=-2.950943999999936 stress="-1.8638600833680992e-05 1.753681162183778e-05 -1.753681162183778e-05 1.753681162183778e-05 0.06469054359992997 4.315341079719244e-06 -1.753681162183778e-05 4.315341079719244e-06 0.06469054359992997" pbc="T T T" 
Se       0.30270175      -0.08950175       0.08950175      -0.00111766       0.00587901      -0.00587901
Se       6.12388925       1.63168575       1.81068925      -0.00111766       0.00587901      -0.00587901
2
Lattice="12.042375 0.0 0.0 0.0 3.442375 0.0 0.0 0.0 3.442375" Properties=species:S:1:pos:R:3:forces:R:3 energy=-2.9520169999999553 stress="-5.784393362176859e-06 8.171603321170483e-06 -8.171603321170483e-06 8.171603321170483e-06 0.062400750170416804 -9.273392533013696e-06 -8.171603321170483e-06 -9.273392533013696e-06 0.062400750170416804" pbc="T T T" 
Se       0.32514413      -0.09294413       0.09294413      -0.00011542       0.01213497      -0.01213497
Se       6.34633163       1.62824338       1.81413163      -0.00011542       0.01213497      -0.01213497
2
Lattice="12.442375 0.0 0.0 0.0 3.442375 0.0 0.0 0.0 3.442375" Properties=species:S:1:pos:R:3:forces:R:3 energy=-2.9518699999999853 stress="-2.2953941913400235e-05 5.2334987562552535e-06 -5.2334987562552535e-06 5.2334987562552535e-06 0.06010921224131824 2.1117626560328216e-06 -5.2334987562552535e-06 2.1117626560328216e-06 0.06010921224131824" pbc="T T T" 
Se       0.34838650      -0.09638650       0.09638650       0.00014815       0.01342404      -0.01342404
Se       6.56957400       1.62480100       1.81757400       0.00014815       0.01342404      -0.01342404
