3
Lattice="30.0 0.0 0.0 0.0 30.0 0.0 0.0 0.0 30.0" Properties=species:S:1:pos:R:3:forces:R:3 energy=-7.697945999999888 stress="-5.683396017757899e-05 -0.0 1.8546785066027393e-05 -0.0 -9.181576765360095e-08 -0.0 1.8546785066027393e-05 -0.0 -5.784393362176859e-06" pbc="T T T" 
Se      -0.47169126       0.00000000      -1.30868757      -0.02329147       0.00000000       0.00315986
Se      -0.86580501       0.00000000       1.05881799      -0.66925663      -0.00000000       0.23561108
Se       1.34228001       0.00000000       0.25994601       0.69939218       0.00000000      -0.22808590
3
Lattice="30.0 0.0 0.0 0.0 30.0 0.0 0.0 0.0 30.0" Properties=species:S:1:pos:R:3:forces:R:3 energy=-7.718386999999893 stress="-1.1017892118432113e-06 -0.0 -0.0 -0.0 -9.181576765360095e-08 0.0 -0.0 0.0 1.9281311207256197e-06" pbc="T T T" 
Se      -0.46731291       0.00000000      -1.29737019      -0.00432236       0.00000000       0.02572823
Se      -0.89068500       0.00000000       1.06781901      -0.00565229       0.00000000      -0.01819783
Se       1.36716099       0.00000000       0.25094400       0.00858360       0.00000000       0.00283238
3
Lattice="30.0 0.0 0.0 0.0 30.0 0.0 0.0 0.0 30.0" Properties=species:S:1:pos:R:3:forces:R:3 energy=-7.681949999999915 stress="4.7101488806297286e-05 -0.0 -1.7444995854184178e-05 -0.0 -9.181576765360095e-08 0.0 -1.7444995854184178e-05 0.0 6.88618257402007e-06" pbc="T T T" 
Se      -0.46359570       0.00000000      -1.28524221      -0.00490366      -0.00000000       0.01306504
Se      -0.91556601       0.00000000       1.07682099       0.55376720      -0.00000000      -0.21198660
Se       1.39204101       0.00000000       0.24194199      -0.54782260      -0.00000000       0.20310757
3
Lattice="30.0 0.0 0.0 0.0 30.0 0.0 0.0 0.0 30.0" Properties=species:S:1:pos:R:3:forces:R:3 energy=-7.649894999999901 stress="8.630682159438489e-05 -0.0 -3.121736100222432e-05 -0.0 -9.181576765360095e-08 -0.0 -3.121736100222432e-05 -0.0 1.2027865562621723e-05" pbc="T T T" 
Se      -0.45953019       0.00000000      -1.27255050       0.00079761      -0.00000000       0.01673781
Se      -0.94044600       0.00000000       1.08582300       0.98997730      -0.00000000      -0.37394935
Se       1.41692199       0.00000000       0.23294100      -0.98370965       0.00000000       0.35044740
3
Lattice="30.0 0.0 0.0 0.0 30.0 0.0 0.0 0.0 30.0" Properties=species:S:1:pos:R:3:forces:R:3 energy=-7.5834769999999025 stress="0.0001169732879906876 0.0 -4.278614772657804e-05 0.0 -9.181576765360095e-08 -0.0 -4.278614772657804e-05 -0.0 1.6894101248262573e-05" pbc="T T T" 
Se      -0.45493932       0.00000000      -1.25898537      -0.00238863       0.00000000       0.01642935
Se      -0.96532701       0.00000000       1.09482501       1.31968719      -0.00000000      -0.49780538
Se       1.44180300       0.00000000       0.22393899      -1.32350178      -0.00000000       0.46992848
3
Lattice="30.0 0.0 0.0 0.0 30.0 0.0 0.0 0.0 30.0" Properties=species:S:1:pos:R:3:forces:R:3 energy=-7.499407999999903 stress="0.0001452525444279967 0.0 -5.169227718897734e-05 0.0 -9.181576765360095e-08 0.0 -5.169227718897734e-05 0.0 2.0933995025021014e-05" pbc="T T T" 
Se      -0.45050607       0.00000000      -1.24521477       0.00914382       0.00000000       0.02625490
Se      -0.99020799       0.00000000       1.10382699       1.58840459      -0.00000000      -0.59258602
Se       1.46668299       0.00000000       0.21493701      -1.59808960      -0.00000000       0.56183812
3
Lattice="30.0 0.0 0.0 0.0 30.0 0.0 0.0 0.0 30.0" Properties=species:S:1:pos:R:3:forces:R:3 energy=-7.412559999999871 stress="0.0001669210655942465 0.0 -5.940480167187981e-05 0.0 -9.181576765360095e-08 -0.0 -5.940480167187981e-05 -0.0 2.4514809963511452e-05" pbc="T T T" 
Se      -0.44498436       0.00000000      -1.22969358       0.01128637       0.00000000       0.03549884
Se      -1.01508801       0.00000000       1.11282900       1.78947243      -0.00000000      -0.66117522
Se       1.49156400       0.00000000       0.20593599      -1.79077313       0.00000000       0.63943415
3
Lattice="30.0 0.0 0.0 0.0 30.0 0.0 0.0 0.0 30.0" Properties=species:S:1:pos:R:3:forces:R:3 energy=-7.187115999999833 stress="0.00018252974609535866 -0.0 -6.693369461947509e-05 -0.0 -9.181576765360095e-08 0.0 -6.693369461947509e-05 0.0 2.2770310378093033e-05" pbc="T T T" 
Se      -0.43102269       0.00000000      -1.19100045      -0.00512547      -0.00000000      -0.01440959
Se      -1.06484901       0.00000000       1.13083200       1.89855609       0.00000000      -0.68301425
Se       1.54132500       0.00000000       0.18793299      -1.89866375      -0.00000000       0.69697285
3
Lattice="30.0 0.0 0.0 0.0 30.0 0.0 0.0 0.0 30.0" Properties=species:S:1:pos:R:3:forces:R:3 energy=-6.972970999999916 stress="0.00012046228716152444 -0.0 -4.269433195892444e-05 -0.0 -1.836315353072019e-07 -0.0 -4.269433195892444e-05 -0.0 1.533323319815136e-05" pbc="T T T" 
Se      -0.40609371       0.00000000      -1.11834429       0.01342334      -0.00000000       0.00254521
Se      -1.11461001       0.00000000       1.14883500       1.20064752      -0.00000008      -0.43046251
Se       1.59108600       0.00000000       0.16992999      -1.20771402       0.00000008       0.42312748
3
Lattice="30.0 0.0 0.0 0.0 30.0 0.0 0.0 0.0 30.0" Properties=species:S:1:pos:R:3:forces:R:3 energy=-6.880463999999847 stress="2.2035784236864225e-05 0.0 -7.069814109327273e-06 0.0 -9.181576765360095e-08 -0.0 -7.069814109327273e-06 -0.0 4.407156847372845e-06" pbc="T T T" 
Se      -0.37135779       0.00000000      -1.02457089       0.01956463       0.00000000       0.03374244
Se      -1.16437101       0.00000000       1.16683800       0.20356351       0.00000000      -0.09212945
Se       1.64084700       0.00000000       0.15192699      -0.21677361       0.00000000       0.05824305
3
Lattice="30.0 0.0 0.0 0.0 30.0 0.0 0.0 0.0 30.0" Properties=species:S:1:pos:R:3:forces:R:3 energy=-6.8775349999998525 stress="-6.546464233701747e-05 -0.0 2.3963915357589847e-05 -0.0 -9.181576765360095e-08 -0.0 2.3963915357589847e-05 -0.0 -8.81431369474569e-06" pbc="T T T" 
Se      -0.33471456       0.00000003      -0.92285175       0.00588924       0.00000005       0.00111843
Se      -1.21413201       0.00000000       1.18484100      -0.60953181      -0.00000656       0.22225666
Se       1.69060800       0.00000000       0.13392399       0.60343713       0.00000650      -0.22176078
3
Lattice="30.0 0.0 0.0 0.0 30.0 0.0 0.0 0.0 30.0" Properties=species:S:1:pos:R:3:forces:R:3 energy=-7.020509999999831 stress="-0.0001458034390339183 0.0 5.380403984501015e-05 0.0 -9.181576765360095e-08 -0.0 5.380403984501015e-05 -0.0 -1.94649427425634e-05" pbc="T T T" 
Se      -0.29612514       0.00000003      -0.81445074       0.02001200      -0.00000003       0.00779602
Se      -1.26389301       0.00000000       1.20284400      -1.32305320       0.00000075       0.47961167
Se       1.74036900       0.00000000       0.11592099       1.30367731      -0.00000075      -0.48470320
3
Lattice="30.0 0.0 0.0 0.0 30.0 0.0 0.0 0.0 30.0" Properties=species:S:1:pos:R:3:forces:R:3 energy=-7.216761999999903 stress="-0.00018326427223658748 0.0 6.546464233701747e-05 0.0 -9.181576765360095e-08 0.0 6.546464233701747e-05 0.0 -2.4422994195857853e-05" pbc="T T T" 
Se      -0.26048580       0.00000000      -0.72101736      -0.01320228      -0.00000000      -0.00455371
Se      -1.31365401       0.00000000       1.22084700      -1.58153252       0.00000000       0.57143312
Se       1.79013000       0.00000000       0.09791799       1.59690607       0.00000000      -0.56604810
3
Lattice="30.0 0.0 0.0 0.0 30.0 0.0 0.0 0.0 30.0" Properties=species:S:1:pos:R:3:forces:R:3 energy=-7.4957509999999274 stress="-0.00011541241994057638 -0.0 4.0215306232277214e-05 -0.0 -9.181576765360095e-08 -0.0 4.0215306232277214e-05 -0.0 -1.6067759339380166e-05" pbc="T T T" 
Se      -0.21921714       0.00000000      -0.60576657      -0.02905025       0.00000000      -0.02764453
Se      -1.41317601       0.00000000       1.25685399      -0.92481120       0.00000000       0.34461789
Se       1.88965200       0.00000000       0.06191199       0.95489915      -0.00000000      -0.31833191
3
Lattice="30.0 0.0 0.0 0.0 30.0 0.0 0.0 0.0 30.0" Properties=species:S:1:pos:R:3:forces:R:3 energy=-7.652250999999865 stress="-3.5349070546636366e-05 -0.0 1.276239170385053e-05 -0.0 -9.181576765360095e-08 0.0 1.276239170385053e-05 0.0 -4.86623568564085e-06" pbc="T T T" 
Se      -0.17898102       0.00000000      -0.49434072       0.00166518      -0.00000000       0.00318853
Se      -1.51269801       0.00000000       1.29285999      -0.27102453      -0.00000000       0.09830465
Se       1.98917400       0.00000000       0.02590500       0.27301737      -0.00000000      -0.09742916
3
Lattice="30.0 0.0 0.0 0.0 30.0 0.0 0.0 0.0 30.0" Properties=species:S:1:pos:R:3:forces:R:3 energy=-7.64899099999991 stress="4.5632436523839665e-05 -0.0 -1.6894101248262573e-05 -0.0 -9.181576765360095e-08 -0.0 -1.6894101248262573e-05 -0.0 5.417130291562455e-06" pbc="T T T" 
Se      -0.13724991       0.00000000      -0.37887873      -0.00457291      -0.00000000      -0.01174297
Se      -1.61222001       0.00000000       1.32886701       0.33871610       0.00000000      -0.11496000
Se       2.08869600       0.00000000      -0.01010100      -0.32907614       0.00000000       0.12806594
3
Lattice="30.0 0.0 0.0 0.0 30.0 0.0 0.0 0.0 30.0" Properties=species:S:1:pos:R:3:forces:R:3 energy=-7.5070639999999 stress="0.00013239833695649256 0.0 -4.87541726240621e-05 0.0 -9.181576765360095e-08 0.0 -4.87541726240621e-05 0.0 1.7720443157144983e-05" pbc="T T T" 
Se      -0.09536490       0.00000000      -0.26356119      -0.00838517       0.00000000       0.00212455
Se      -1.71174201       0.00000000       1.36487301       0.92809339       0.00000000      -0.33702401
Se       2.18821800       0.00000000      -0.04610799      -0.91180326      -0.00000000       0.33665804
3
Lattice="30.0 0.0 0.0 0.0 30.0 0.0 0.0 0.0 30.0" Properties=species:S:1:pos:R:3:forces:R:3 energy=-7.243563999999878 stress="0.00022191871041875346 -0.0 -8.033879669690082e-05 -0.0 -9.181576765360095e-08 0.0 -8.033879669690082e-05 0.0 2.809562490200189e-05" pbc="T T T" 
Se      -0.05523765       0.00000000      -0.14995707       0.00339208      -0.00000000      -0.01759987
Se      -1.81126401       0.00000000       1.40088000       1.46398496       0.00000000      -0.51695645
Se       2.28774000       0.00000000      -0.08211501      -1.46356875       0.00000000       0.53863967
3
Lattice="30.0 0.0 0.0 0.0 30.0 0.0 0.0 0.0 30.0" Properties=species:S:1:pos:R:3:forces:R:3 energy=-6.8610669999999345 stress="0.00030850097931609915 -0.0 -0.00011192342076973956 -0.0 -9.181576765360095e-08 0.0 -0.00011192342076973956 0.0 4.039893776758442e-05" pbc="T T T" 
Se      -0.01521894       0.00000000      -0.04309719      -0.01451033      -0.00000000      -0.00770891
Se      -1.91078601       0.00000000       1.43688600       1.94092628       0.00000000      -0.70042293
Se       2.38726200       0.00000000      -0.11812101      -1.93697146       0.00000000       0.70404158
3
Lattice="30.0 0.0 0.0 0.0 30.0 0.0 0.0 0.0 30.0" Properties=species:S:1:pos:R:3:forces:R:3 energy=-6.389745999999832 stress="0.00037736280505629985 0.0 -0.000135979151894983 0.0 -9.181576765360095e-08 -0.0 -0.000135979151894983 -0.0 4.8937804159369305e-05" pbc="T T T" 
Se       0.02086845       0.00000000       0.06138630       0.00498419       0.00000000      -0.00677164
Se      -2.01030801       0.00000000       1.47289299       2.25606434       0.00000000      -0.81231774
Se       2.48678400       0.00000000      -0.15412800      -2.26614119      -0.00000000       0.81913103
3
Lattice="30.0 0.0 0.0 0.0 30.0 0.0 0.0 0.0 30.0" Properties=species:S:1:pos:R:3:forces:R:3 energy=-5.85244299999988 stress="0.000425657898842094 0.0 -0.0001544341211933568 0.0 -9.181576765360095e-08 0.0 -0.0001544341211933568 0.0 5.545672366277497e-05" pbc="T T T" 
Se       0.06294852       0.00000000       0.17533071      -0.00876880      -0.00000000      -0.01809856
Se      -2.10983001       0.00000000       1.50890001       2.45457406       0.00000000      -0.87642594
Se       2.58630600       0.00000000      -0.19013400      -2.44450464       0.00000000       0.89659922
3
Lattice="30.0 0.0 0.0 0.0 30.0 0.0 0.0 0.0 30.0" Properties=species:S:1:pos:R:3:forces:R:3 energy=-5.28665199999989 stress="0.00045540620756186065 -0.0 -0.0001653601975441353 -0.0 -9.181576765360095e-08 -0.0 -0.0001653601975441353 -0.0 5.968024897484061e-05" pbc="T T T" 
Se       0.11031222       0.00000000       0.31120596      -0.00840622      -0.00000000      -0.00917799
Se      -2.20935201       0.00000000       1.54490601       2.51927294       0.00000000      -0.90646203
Se       2.68582800       0.00000000      -0.22614099      -2.51092835       0.00000000       0.91543502
3
Lattice="30.0 0.0 0.0 0.0 30.0 0.0 0.0 0.0 30.0" Properties=species:S:1:pos:R:3:forces:R:3 energy=-4.718468999999914 stress="0.00046780133619509683 -0.0 -0.00016930827555324015 -0.0 -9.181576765360095e-08 0.0 -0.00016930827555324015 0.0 6.105748548964463e-05" pbc="T T T" 
Se       0.21906483       0.00000000       0.70764315      -0.02793131       0.00000000       0.00983858
Se      -2.30887401       0.00000000       1.58091300       2.49925143      -0.00000000      -0.90349852
Se       2.78535000       0.00000000      -0.26214699      -2.46262326      -0.00000000       0.89135001
3
Lattice="30.0 0.0 0.0 0.0 30.0 0.0 0.0 0.0 30.0" Properties=species:S:1:pos:R:3:forces:R:3 energy=-4.431656999999859 stress="0.000253778781794553 0.0 -9.154032035064013e-05 0.0 -9.181576765360095e-08 -0.0 -9.154032035064013e-05 -0.0 3.305367635529634e-05" pbc="T T T" 
Se      -0.14636343      -0.00293847       1.40190729      -0.00763510      -0.00013712      -0.00243715
Se      -2.40839601       0.00000000       1.61691900       1.30321907       0.00020659      -0.46603750
Se       2.88487200       0.00000000      -0.29815401      -1.28864662       0.00002054       0.46628960
