8
Lattice="30.0 0.0 0.0 0.0 30.0 0.0 0.0 0.0 30.0" Properties=species:S:1:pos:R:3:forces:R:3 energy=-25.27211599999964 stress="-3.810354357624439e-05 2.754473029608028e-07 2.0015837348485005e-05 2.754473029608028e-07 -3.3053676355296338e-06 -9.181576765360095e-08 2.0015837348485005e-05 -9.181576765360095e-08 -1.560868050111216e-05" pbc="T T T" 
Se      -1.00225401      -2.47834500       0.56253399      -0.48080671      -0.01392265       0.31341945
Se       2.49132117       1.03427967      -0.55190799       0.00319112      -0.00849960      -0.00957523
Se       1.01798100      -2.47396599      -0.55743501       0.48922381      -0.01210059      -0.31090851
Se       2.48632785      -1.02020340       0.60900465       0.00337542       0.01444119       0.02610297
Se      -1.02113529       2.47608243      -0.59906148      -0.00399418       0.01162200      -0.01544248
Se      -2.47626825      -1.03214820      -0.60619281      -0.00345788       0.01062087      -0.03143346
Se       1.01672520       2.47989093       0.59637432       0.00602464       0.01487808       0.01482606
Se      -2.49027297       1.02519240       0.54933288      -0.00452329      -0.00818480       0.01395541
8
Lattice="30.0 0.0 0.0 0.0 30.0 0.0 0.0 0.0 30.0" Properties=species:S:1:pos:R:3:forces:R:3 energy=-25.286039000000073 stress="5.1416829886016525e-06 9.181576765360095e-08 9.181576765360095e-07 9.181576765360095e-08 1.1017892118432113e-06 -1.836315353072019e-07 9.181576765360095e-07 -1.836315353072019e-07 3.3053676355296338e-06" pbc="T T T" 
Se      -1.02539499      -2.47839501       0.57536301      -0.00625773       0.01137649      -0.01783042
Se       2.49183558       1.03473069      -0.55346571      -0.00974484       0.01438733       0.02008919
Se       1.04112201      -2.47391601      -0.57026400       0.00871864       0.01029683       0.02075343
Se       2.48648574      -1.02090327       0.61028724      -0.02131756      -0.01384992      -0.01917997
Se      -1.02121620       2.47660425      -0.60048324       0.00511974      -0.00812996       0.02654610
Se      -2.47640535      -1.03294860      -0.60755196       0.02046169      -0.01680075       0.01372846
Se       1.01685423       2.48041491       0.59778603      -0.00303187      -0.00534468      -0.02827648
Se      -2.49082272       1.02568005       0.55096341       0.00807663       0.01511554      -0.01505474
8
Lattice="30.0 0.0 0.0 0.0 30.0 0.0 0.0 0.0 30.0" Properties=species:S:1:pos:R:3:forces:R:3 energy=-25.12767299999996 stress="2.3872099589936244e-05 -1.836315353072019e-07 -1.4231443986308145e-05 -1.836315353072019e-07 -4.958051453294451e-06 -4.5907883826800474e-07 -1.4231443986308145e-05 -4.5907883826800474e-07 4.77441991798725e-06" pbc="T T T" 
Se      -1.04853600      -2.47844499       0.58819200       0.32428018       0.00748551      -0.20027625
Se       2.49183600       1.03473099      -0.55346601       0.00832071       0.02852953      -0.03484907
Se       1.06426299      -2.47386600      -0.58309299      -0.32874277      -0.00041806       0.19986832
Se       2.48648601      -1.02090300       0.61028700      -0.00342597      -0.03279370       0.01955193
Se      -1.02121599       2.47660401      -0.60048300      -0.00359625       0.00396135      -0.02745131
Se      -2.47640499      -1.03294899      -0.60755199       0.00325499      -0.03546346      -0.02367433
Se       1.01685399       2.48041500       0.59778600       0.00531257       0.00673580       0.02605775
Se      -2.49082299       1.02567999       0.55096299      -0.00966964       0.02839015       0.03863677
8
Lattice="30.0 0.0 0.0 0.0 30.0 0.0 0.0 0.0 30.0" Properties=species:S:1:pos:R:3:forces:R:3 energy=-25.24181899999985 stress="4.746875187691168e-05 1.836315353072019e-07 -2.7636546063733884e-05 1.836315353072019e-07 -4.498972615026447e-06 -5.508946059216056e-07 -2.7636546063733884e-05 -5.508946059216056e-07 1.93731269749098e-05" pbc="T T T" 
Se      -1.07167701      -2.47849500       0.60102099       0.63974014       0.01296322      -0.43412959
Se       2.49128562       1.03850919      -0.55242168       0.02379569       0.01236606      -0.00615322
Se       1.08740400      -2.47381599      -0.59592201      -0.64066262       0.00291483       0.42938717
Se       2.48479542      -1.02492366       0.60741771      -0.00523343      -0.03263964      -0.03501606
Se      -1.02082725       2.47525515      -0.59809425      -0.00782243       0.01154916      -0.01934647
Se      -2.47473930      -1.03692381      -0.60485766       0.00539070      -0.03260339       0.03390229
Se       1.01651646       2.47927470       0.59530731       0.00715607       0.01616900       0.02002308
Se      -2.49035484       1.02932247       0.55014204      -0.02081982       0.01284657       0.00586433
8
Lattice="30.0 0.0 0.0 0.0 30.0 0.0 0.0 0.0 30.0" Properties=species:S:1:pos:R:3:forces:R:3 energy=-25.195698999999877 stress="6.500556349874947e-05 2.754473029608028e-07 -3.8562622414512394e-05 2.754473029608028e-07 -6.702551038712869e-06 -5.508946059216056e-07 -3.8562622414512394e-05 -5.508946059216056e-07 2.139307386328902e-05" pbc="T T T" 
Se      -1.09481700      -2.47854501       0.61385001       0.86758635      -0.01023996      -0.52016653
Se       2.49737337       1.04647755      -0.55022463       0.01749487       0.02558526      -0.02526150
Se       1.11054501      -2.47376601      -0.60875100      -0.86488793      -0.01835284       0.51635500
Se       2.49156789      -1.03010031       0.59314416       0.02244434      -0.01354421       0.00304154
Se      -1.02140625       2.47577055      -0.60023136       0.02331556       0.00360965      -0.00902012
Se      -2.48139054      -1.04205972      -0.59048256      -0.02193797      -0.01820390      -0.00502689
Se       1.01745495       2.48081235       0.59724003      -0.02284461       0.00483617       0.00883614
Se      -2.49595938       1.03695255       0.54828150      -0.01660573       0.02630416       0.02701307
8
Lattice="30.0 0.0 0.0 0.0 30.0 0.0 0.0 0.0 30.0" Properties=species:S:1:pos:R:3:forces:R:3 energy=-25.138954000000012 stress="8.052242823220803e-05 2.754473029608028e-07 -4.746875187691168e-05 2.754473029608028e-07 -2.387209958993625e-06 -0.0 -4.746875187691168e-05 -0.0 2.3688468054629045e-05" pbc="T T T" 
Se      -1.11795801      -2.47859499       0.62667900       1.00832562       0.00606305      -0.59270967
Se       2.50739985       1.06097694      -0.55068039       0.00428539       0.02933449      -0.03978119
Se       1.13368599      -2.47371600      -0.62157999      -1.00891119      -0.00021273       0.59135840
Se       2.51115843      -1.02923769       0.57189537       0.00798006      -0.02386413       0.01837231
Se      -1.01785419       2.47193328      -0.60482499      -0.01088749      -0.00378150      -0.02515730
Se      -2.50123473      -1.04239983      -0.56993589      -0.00722837      -0.01951527      -0.01443122
Se       1.01351292       2.47800987       0.60135390       0.01266911      -0.00434959       0.02483688
Se      -2.50543656       1.05033684       0.54935046      -0.00540199       0.02320601       0.03531719
8
Lattice="30.0 0.0 0.0 0.0 30.0 0.0 0.0 0.0 30.0" Properties=species:S:1:pos:R:3:forces:R:3 energy=-25.073519999999917 stress="9.062216267410413e-05 8.263419088824084e-07 -5.2977697936127746e-05 8.263419088824084e-07 -2.2953941913400235e-06 2.754473029608028e-07 -5.2977697936127746e-05 2.754473029608028e-07 3.011557179038111e-05" pbc="T T T" 
Se      -1.14109899      -2.47864500       0.63950799       1.12433473      -0.00505787      -0.66854598
Se       2.50924710       1.06673907      -0.55454496       0.00616700       0.02369519      -0.02526487
Se       1.15682700      -2.47366599      -0.63440901      -1.11647739      -0.00397274       0.67422180
Se       2.51605173      -1.03113672       0.56667249       0.01825602      -0.01230474      -0.00161740
Se      -1.01820144       2.46975981      -0.60607140       0.01047347      -0.00636428      -0.00265906
Se      -2.50581663      -1.04455434      -0.56441007      -0.02201479      -0.00664795      -0.00155955
Se       1.01415624       2.47585227       0.60258459      -0.01088711      -0.00591307       0.00283557
Se      -2.50735554       1.05564708       0.55267401      -0.00525228       0.02223135       0.02253428
8
Lattice="30.0 0.0 0.0 0.0 30.0 0.0 0.0 0.0 30.0" Properties=species:S:1:pos:R:3:forces:R:3 energy=-24.92571199999975 stress="0.00011008710541666753 1.377236514804014e-06 -6.0782038186683824e-05 1.377236514804014e-06 -3.672630706144038e-07 1.836315353072019e-07 -6.0782038186683824e-05 1.836315353072019e-07 3.88380697174732e-05" pbc="T T T" 
Se      -1.18738101      -2.47874601       0.66516501       1.28222842       0.00517422      -0.79351138
Se       2.51693085       1.07976792      -0.55854270       0.01541736       0.01280168      -0.02760601
Se       1.20310800      -2.47356600      -0.66006600      -1.26450740       0.01827278       0.81283936
Se       2.53533132      -1.03053570       0.54925716       0.00448118      -0.02691752      -0.03031120
Se      -1.01836848       2.46611451      -0.60819897       0.03308007      -0.00430148       0.00022351
Se      -2.52435507      -1.04416188      -0.54659565      -0.01841887      -0.01778669       0.01354915
Se       1.01460063       2.47210500       0.60459510      -0.03179164      -0.00461266      -0.00081321
Se      -2.51495361       1.06857756       0.55619301      -0.01562704       0.02611038       0.03598671
8
Lattice="30.0 0.0 0.0 0.0 30.0 0.0 0.0 0.0 30.0" Properties=species:S:1:pos:R:3:forces:R:3 energy=-24.766501999999946 stress="0.00011844234027314521 1.1017892118432113e-06 -7.023906225500472e-05 1.1017892118432113e-06 7.437077179941676e-06 -0.0 -7.023906225500472e-05 -0.0 4.241888465596364e-05" pbc="T T T" 
Se      -1.23366201      -2.47884600       0.69082299       1.34615593       0.00319876      -0.81531513
Se       2.53146999       1.10215623      -0.57358536      -0.00376829      -0.01805565       0.00249911
Se       1.24938999      -2.47346601      -0.68572299      -1.33171013       0.01037965       0.83162168
Se       2.56955178      -1.03148613       0.51433101       0.00519070       0.01959659      -0.03955966
Se      -1.01357556       2.45547252      -0.61120512      -0.02705122      -0.01566049      -0.00684302
Se      -2.55833307      -1.04397912      -0.51039711      -0.02542176       0.03209465       0.01805385
Se       1.01054196       2.46127251       0.60769233       0.03282008      -0.01693462       0.00678260
Se      -2.52892083       1.09258260       0.57255738       0.00454746      -0.00956034       0.00292607
8
Lattice="30.0 0.0 0.0 0.0 30.0 0.0 0.0 0.0 30.0" Properties=species:S:1:pos:R:3:forces:R:3 energy=-24.601400000000012 stress="0.00012946023239157733 1.836315353072019e-06 -7.207537760807674e-05 1.836315353072019e-06 6.702551038712869e-06 8.263419088824084e-07 -7.207537760807674e-05 8.263419088824084e-07 4.067438507054522e-05" pbc="T T T" 
Se      -1.27994400      -2.47894599       0.71648001       1.37922214      -0.00127915      -0.77839653
Se       2.54847042       1.12902210      -0.60091479      -0.00424044      -0.02662663      -0.01808905
Se       1.29567099      -2.47336599      -0.71138100      -1.34635961       0.02231605       0.80511245
Se       2.62115211      -1.02523134       0.45803535      -0.01053780       0.00713720      -0.00675838
Se      -1.01447058       2.43352200      -0.61339785       0.00425708      -0.00798523       0.01104567
Se      -2.60890512      -1.03908393      -0.45419376      -0.02052566       0.03513706      -0.02374051
Se       1.01376408       2.43909537       0.61024038      -0.00543112      -0.00641989      -0.01281831
Se      -2.54453286       1.11985392       0.59838687       0.00299886      -0.02075526       0.02640251
8
Lattice="30.0 0.0 0.0 0.0 30.0 0.0 0.0 0.0 30.0" Properties=species:S:1:pos:R:3:forces:R:3 energy=-24.43482300000005 stress="0.00013083746890638133 3.672630706144038e-07 -7.455440333472397e-05 3.672630706144038e-07 -9.181576765360095e-08 -6.427103735752066e-07 -7.455440333472397e-05 -6.427103735752066e-07 4.3153410797192444e-05" pbc="T T T" 
Se      -1.32622599      -2.47904601       0.74213700       1.35227163       0.01202135      -0.82517410
Se       2.55440628       1.13245209      -0.61305492       0.00874383       0.00307877      -0.03926792
Se       1.34195301      -2.47326600      -0.73703799      -1.36265804      -0.00400136       0.82127081
Se       2.63595258      -1.02060048       0.44596491       0.01682417      -0.00581699       0.00189742
Se      -1.01842029       2.42711028      -0.60706689       0.00239552      -0.00494516       0.00111077
Se      -2.62432203      -1.03219188      -0.44248380      -0.01286104      -0.00874108       0.00381765
Se       1.01694198       2.43293331       0.60377322      -0.00976225      -0.00030177       0.00138616
Se      -2.55094968       1.12286106       0.61242990      -0.00496403       0.00209805       0.03653144
8
Lattice="30.0 0.0 0.0 0.0 30.0 0.0 0.0 0.0 30.0" Properties=species:S:1:pos:R:3:forces:R:3 energy=-24.273572999999942 stress="0.000135060994218447 -4.5907883826800474e-07 -7.66661659907568e-05 -4.5907883826800474e-07 6.059840665137662e-06 -8.263419088824084e-07 -7.66661659907568e-05 -8.263419088824084e-07 4.526517345322526e-05" pbc="T T T" 
Se      -1.37250699      -2.47914600       0.76779501       1.27969252       0.01622307      -0.78517694
Se       2.56821846       1.15154505      -0.64236654      -0.03281093       0.01274041      -0.00817904
Se       1.38823401      -2.47316601      -0.76269501      -1.30524880      -0.01391201       0.76202672
Se       2.67520026      -1.01321874       0.40358304       0.02387516       0.02850330       0.01690837
Se      -1.02117054       2.41470201      -0.60299613      -0.03313471      -0.03268142       0.03490296
Se      -2.66718375      -1.02540570      -0.40291596       0.00718400       0.01635448       0.02027192
Se       1.01759049       2.42057355       0.59930535       0.02702075      -0.02952745      -0.03030025
Se      -2.56554279       1.14060234       0.64255806       0.03695123       0.00509166      -0.00968121
8
Lattice="30.0 0.0 0.0 0.0 30.0 0.0 0.0 0.0 30.0" Properties=species:S:1:pos:R:3:forces:R:3 energy=-24.117437999999765 stress="0.0001244103651706293 3.672630706144038e-07 -6.941272034612232e-05 3.672630706144038e-07 -2.2035784236864225e-06 -1.836315353072019e-07 -6.941272034612232e-05 -1.836315353072019e-07 4.471427884730365e-05" pbc="T T T" 
Se      -1.41878901      -2.47924599       0.79345200       1.21127003       0.01016445      -0.78861718
Se       2.56697796       1.15536084      -0.64369035       0.02293308       0.00788845      -0.03885549
Se       1.43451501      -2.47306599      -0.78835299      -1.21761690       0.00592040       0.79204569
Se       2.68329057      -1.00675821       0.40902546       0.00054369      -0.02292920      -0.03638718
Se      -1.02331635       2.41226157      -0.60061050       0.01196545       0.00428045      -0.00961685
Se      -2.67332766      -1.02012924      -0.40602831      -0.00282086      -0.01746723       0.03396895
Se       1.01952219       2.41817796       0.59708388      -0.01123343       0.00483529       0.00922774
Se      -2.56419729       1.14414036       0.64296474      -0.02423249       0.01182494       0.03936701
8
Lattice="30.0 0.0 0.0 0.0 30.0 0.0 0.0 0.0 30.0" Properties=species:S:1:pos:R:3:forces:R:3 energy=-23.840476999999737 stress="0.0001165142091524196 0.0 -6.445466889282786e-05 0.0 5.968024897484061e-06 -9.181576765360095e-08 -6.445466889282786e-05 -9.181576765360095e-08 3.9021701252780404e-05" pbc="T T T" 
Se      -1.51135200      -2.47944699       0.84476700       1.06126924       0.00830762      -0.64182980
Se       2.58432582       1.20556371      -0.69572943       0.01606670      -0.03140207      -0.02508212
Se       1.52707800      -2.47286499      -0.83966799      -1.05611104      -0.00069597       0.63506669
Se       2.76607089      -0.98362149       0.32005842      -0.00066003       0.03162894      -0.00188200
Se      -1.02762828       2.38640697      -0.60078732       0.01651209       0.00081185       0.01786022
Se      -2.75673384      -0.99630309      -0.31710069       0.00191876       0.03608430       0.00836832
Se       1.02210510       2.39274822       0.59614785      -0.01349287      -0.00217107      -0.02122723
Se      -2.58317016       1.19620425       0.69532899      -0.01924170      -0.03565745       0.02577721
8
Lattice="30.0 0.0 0.0 0.0 30.0 0.0 0.0 0.0 30.0" Properties=species:S:1:pos:R:3:forces:R:3 energy=-23.59605899999997 stress="0.00010393544898387626 -2.754473029608028e-07 -6.243472200444864e-05 -2.754473029608028e-07 -2.1117626560328216e-06 9.181576765360095e-08 -6.243472200444864e-05 9.181576765360095e-08 3.755264897032279e-05" pbc="T T T" 
Se      -1.60391499      -2.47964799       0.89608200       0.91472260      -0.00563722      -0.58143610
Se       2.59925256       1.21504332      -0.70734096      -0.01751117       0.02966565      -0.01718348
Se       1.61964099      -2.47266501      -0.89098299      -0.90690464      -0.00897996       0.58293863
Se       2.78263353      -0.96458022       0.31659000       0.02320824      -0.00506163      -0.00857946
Se      -1.02942576       2.38273767      -0.59338620      -0.01735510      -0.00847857       0.00344978
Se      -2.77279080      -0.97793352      -0.31211091      -0.02730093      -0.00537605       0.00236356
Se       1.02359826       2.38914558       0.58889232       0.02711324      -0.01480552      -0.01276920
Se      -2.59819344       1.20557106       0.70626546       0.00455309       0.02133751       0.03022000
8
Lattice="30.0 0.0 0.0 0.0 30.0 0.0 0.0 0.0 30.0" Properties=species:S:1:pos:R:3:forces:R:3 energy=-23.37528999999995 stress="9.163213611829374e-05 3.672630706144038e-07 -5.288588216847414e-05 3.672630706144038e-07 3.029920332568831e-06 4.5907883826800474e-07 -5.288588216847414e-05 4.5907883826800474e-07 3.323730789060354e-05" pbc="T T T" 
Se      -1.69647801      -2.47984800       0.94739700       0.75303370       0.02309139      -0.50546205
Se       2.61541689       1.25400855      -0.73887135      -0.01945960      -0.00165165      -0.03802790
Se       1.71220401      -2.47246500      -0.94229799      -0.74449519       0.03059407       0.51038798
Se       2.83521390      -0.93907716       0.26864715       0.01469671      -0.02814096      -0.02859211
Se      -1.03559646       2.36445951      -0.58793289      -0.03015099       0.00167111      -0.01384549
Se      -2.82625332      -0.95462397      -0.26628222      -0.01969303      -0.02512634       0.02196368
Se       1.02676293       2.37157536       0.58327242       0.03189099      -0.00036451       0.01183803
Se      -2.61609180       1.24026207       0.73856124       0.01505021      -0.00081563       0.03535103
8
Lattice="30.0 0.0 0.0 0.0 30.0 0.0 0.0 0.0 30.0" Properties=species:S:1:pos:R:3:forces:R:3 energy=-23.232084999999643 stress="7.886974441444321e-05 -4.5907883826800474e-07 -4.792783071517969e-05 -4.5907883826800474e-07 4.039893776758441e-06 -4.5907883826800474e-07 -4.792783071517969e-05 -4.5907883826800474e-07 2.9564677184459502e-05" pbc="T T T" 
Se      -1.78904100      -2.48004801       0.99871200       0.59634369       0.00974703      -0.41433688
Se       2.62081608       1.26570249      -0.75397152       0.00482478      -0.03154320      -0.01020065
Se       1.80476700      -2.47226499      -0.99361299      -0.60557238      -0.00084139       0.40296684
Se       2.85185853      -0.92845710       0.26377902      -0.00036862       0.02611498      -0.01864742
Se      -1.03993707       2.36107650      -0.58422318      -0.00164859       0.00720799      -0.00534700
Se      -2.84398854      -0.94432932      -0.26315649       0.00283963       0.02405347       0.02821254
Se       1.02999852       2.36780826       0.57853992       0.00090860       0.00691035       0.00252171
Se      -2.62264851       1.25213445       0.75195621      -0.00740496      -0.03450421       0.01008436
8
Lattice="30.0 0.0 0.0 0.0 30.0 0.0 0.0 0.0 30.0" Properties=species:S:1:pos:R:3:forces:R:3 energy=-23.093308999999863 stress="6.344469544863825e-05 -4.5907883826800474e-07 -3.8195359343898e-05 -4.5907883826800474e-07 -4.131709544412042e-06 -3.672630706144038e-07 -3.8195359343898e-05 -3.672630706144038e-07 2.414754689289705e-05" pbc="T T T" 
Se      -1.88160399      -2.48024799       1.05002700       0.48242006      -0.01655945      -0.32849787
Se       2.62471965       1.27182267      -0.75961233       0.00095660       0.00658691      -0.01635039
Se       1.89732999      -2.47206501      -1.04492799      -0.48359857      -0.02307221       0.32703568
Se       2.86051947      -0.91732818       0.26234808       0.01347706       0.01278826      -0.01193882
Se      -1.04186796       2.35944765      -0.58300485       0.00851529       0.00512177      -0.00001941
Se      -2.85242187      -0.93268623      -0.26047101      -0.01236775       0.00516095       0.01107788
Se       1.03082682       2.36656821       0.57728133      -0.00246911      -0.00163016      -0.00949982
Se      -2.62715097       1.25880687       0.75690123      -0.01216068       0.00998647       0.03069633
8
Lattice="30.0 0.0 0.0 0.0 30.0 0.0 0.0 0.0 30.0" Properties=species:S:1:pos:R:3:forces:R:3 energy=-22.960104999999658 stress="4.930506722998371e-05 -9.181576765360095e-08 -2.9197414113845102e-05 -9.181576765360095e-08 -5.0498672209480524e-06 -9.181576765360095e-08 -2.9197414113845102e-05 -9.181576765360095e-08 1.845496929837379e-05" pbc="T T T" 
Se      -1.97416701      -2.48044800       1.10134200       0.35990999      -0.03251713      -0.23595527
Se       2.63080386       1.28711037      -0.76718370       0.00083407       0.00226733      -0.01398763
Se       1.98989301      -2.47186500      -1.09624299      -0.35905044      -0.03404326       0.23792206
Se       2.86596558      -0.90701565       0.25639821       0.01393880       0.03149864      -0.01570389
Se      -1.04522355       2.35822599      -0.58120575       0.00557112       0.00235991       0.00032321
Se      -2.85767310      -0.92244603      -0.25339749      -0.01708226       0.02843697       0.00980963
Se       1.03337847       2.36540784       0.57463722      -0.00802416       0.00294762      -0.00192074
Se      -2.63497854       1.27433196       0.76530270      -0.00238655       0.00078354       0.01522584
8
Lattice="30.0 0.0 0.0 0.0 30.0 0.0 0.0 0.0 30.0" Properties=species:S:1:pos:R:3:forces:R:3 energy=-22.86562499999991 stress="3.3880018264178744e-05 -2.754473029608028e-07 -2.047491618675301e-05 -2.754473029608028e-07 -1.4415075521615347e-05 1.836315353072019e-07 -2.047491618675301e-05 1.836315353072019e-07 7.528892947595278e-06" pbc="T T T" 
Se      -2.06673000      -2.48064801       1.15265700       0.23172136      -0.05713560      -0.12605114
Se       2.63080401       1.28711001      -0.76718400      -0.00716507       0.03175027      -0.02745224
Se       2.08245600      -2.47166499      -1.14755799      -0.23235321      -0.05987642       0.12508210
Se       2.86596600      -0.90701601       0.25639800       0.00683402       0.02103224       0.02615388
Se      -1.04522400       2.35822599      -0.58120599      -0.00619081       0.01486411      -0.01965015
Se      -2.85767301      -0.92244600      -0.25339701      -0.00419992       0.02039001      -0.02422257
Se       1.03337799       2.36540799       0.57463701       0.00977765       0.01185369       0.01423260
Se      -2.63497899       1.27433199       0.76530300      -0.00333822       0.01947606       0.02949092
8
Lattice="30.0 0.0 0.0 0.0 30.0 0.0 0.0 0.0 30.0" Properties=species:S:1:pos:R:3:forces:R:3 energy=-23.805688999999802 stress="2.019946888379221e-05 -1.1936049794968124e-06 -3.397183403183235e-06 -1.1936049794968124e-06 2.5708414943008263e-06 1.377236514804014e-06 -3.397183403183235e-06 1.377236514804014e-06 -5.508946059216056e-07" pbc="T T T" 
Se      -2.15929299      -2.48084799       1.20397200       0.02298746       0.01869478      -0.01589757
Se       1.95351177       1.13898675      -1.11220926      -0.03890900       0.01174979      -0.01670729
Se       2.17501899      -2.47146501      -1.19887299      -0.03426772       0.03792583       0.03398464
Se       1.40196483      -0.89797986       0.18438519      -0.06036596      -0.04016472       0.01035029
Se      -1.19330682       2.84097912      -0.28777290       0.05256855      -0.00027099      -0.01680982
Se      -1.41037353      -0.92444406      -0.21050067       0.07652953      -0.02405319      -0.03642271
Se       1.13372406       2.84863482       0.25424319      -0.04623227      -0.00071955       0.00310445
Se      -1.99447890       1.11380250       1.06552032       0.02731746       0.00017820       0.03823927
8
Lattice="30.0 0.0 0.0 0.0 30.0 0.0 0.0 0.0 30.0" Properties=species:S:1:pos:R:3:forces:R:3 energy=-23.806170999999722 stress="4.77441991798725e-06 -4.5907883826800474e-07 -2.387209958993625e-06 -4.5907883826800474e-07 4.590788382680047e-06 1.836315353072019e-07 -2.387209958993625e-06 1.836315353072019e-07 1.744499585418418e-06" pbc="T T T" 
Se      -2.25185601      -2.48104800       1.25528700       0.02075942       0.01294458      -0.02031580
Se       1.85256774       1.02840732      -1.10560857      -0.01017267      -0.01169590       0.00147586
Se       2.26758201      -2.47126500      -1.25018799      -0.01947940       0.01742162       0.01623246
Se       1.38382017      -1.02538107       0.20663175      -0.00842818       0.00277872       0.00386879
Se      -1.20543240       2.80594686      -0.25104183      -0.00061082      -0.00464897       0.01331058
Se      -1.38868083      -1.04848035      -0.22731222       0.00241470      -0.00092927       0.00412086
Se       1.14019080       2.82158409       0.20883852      -0.00206408      -0.00555387      -0.01375692
Se      -1.89042006       1.00479762       1.06821480       0.00981552      -0.01133916      -0.00617564
8
Lattice="30.0 0.0 0.0 0.0 30.0 0.0 0.0 0.0 30.0" Properties=species:S:1:pos:R:3:forces:R:3 energy=-23.812977000000046 stress="1.1385155189046516e-05 -7.345261412288076e-07 -5.325314523908855e-06 -7.345261412288076e-07 -7.345261412288076e-07 5.508946059216056e-07 -5.325314523908855e-06 5.508946059216056e-07 3.856262241451239e-06" pbc="T T T" 
Se      -2.34441900      -2.48124900       1.30660200       0.04297949      -0.01044269      -0.01174377
Se       1.80060627       0.92852694      -1.11881757      -0.01622616       0.01174855       0.02783947
Se       2.36014500      -2.47106400      -1.30150299      -0.05362239       0.00660221       0.02725802
Se       1.39341711      -1.12481883       0.20258313       0.00096558      -0.01171935       0.00141295
Se      -1.21239540       2.74628688      -0.22067511       0.01462886      -0.00861222       0.02890648
Se      -1.39469514      -1.14767925      -0.21873786       0.01171153      -0.00558981      -0.02247839
Se       1.14605550       2.76032454       0.17526906      -0.01601466      -0.00570350      -0.03286999
Se      -1.84253763       0.90968475       1.07930904       0.01158897       0.01522947      -0.02100396
8
Lattice="30.0 0.0 0.0 0.0 30.0 0.0 0.0 0.0 30.0" Properties=species:S:1:pos:R:3:forces:R:3 energy=-23.79037799999969 stress="1.94649427425634e-05 -2.754473029608028e-07 -1.166060249200732e-05 -2.754473029608028e-07 1.744499585418418e-06 9.181576765360095e-08 -1.166060249200732e-05 9.181576765360095e-08 4.315341079719244e-06" pbc="T T T" 
Se      -2.43698199      -2.48145000       1.35791700       0.11607693       0.01831855      -0.06100598
Se       1.75604763       0.82370490      -1.10502312      -0.00096506       0.01716916      -0.01204973
Se       2.45270799      -2.47086300      -1.35281799      -0.11031268       0.01592919       0.04858611
Se       1.39620606      -1.24738494       0.20201865       0.00752765      -0.02051033       0.02610706
Se      -1.21986450       2.68886862      -0.18928338       0.00513760      -0.01055793      -0.01233872
Se      -1.40022483      -1.27044351      -0.22177290      -0.01630403      -0.02316533      -0.00266405
Se       1.15409766       2.70452697       0.13979193      -0.00082188      -0.01105528       0.01352832
Se      -1.79606739       0.80606472       1.06576362       0.00419730       0.01392121       0.00138338
8
Lattice="30.0 0.0 0.0 0.0 30.0 0.0 0.0 0.0 30.0" Properties=species:S:1:pos:R:3:forces:R:3 energy=-23.757595000000038 stress="3.773628050562999e-05 -9.181576765360095e-08 -2.029128465144581e-05 -9.181576765360095e-08 1.836315353072019e-06 -1.836315353072019e-07 -2.029128465144581e-05 -1.836315353072019e-07 1.065062904781771e-05" pbc="T T T" 
Se      -2.52954501      -2.48165001       1.40923200       0.18601339       0.01280731      -0.08249419
Se       1.76219133       0.76470987      -1.11519690      -0.00860872      -0.00372712       0.03064755
Se       2.54527101      -2.47066200      -1.40413299      -0.18498546       0.01225563       0.07821818
Se       1.42860132      -1.31985312       0.17179677      -0.01008613      -0.01057343       0.01902161
Se      -1.21527825       2.62026315      -0.19690440      -0.00314029      -0.00149502       0.00806486
Se      -1.42813002      -1.34221671      -0.18671061       0.00643725      -0.01237310      -0.01509155
Se       1.15483380       2.63489742       0.14595438      -0.00010230      -0.00352064      -0.00965323
Se      -1.80161103       0.75013953       1.07540715       0.01274786      -0.00250364      -0.03248491
