8
Lattice="7.051557 0.0 0.0 0.0 5.651557 0.0 0.0 0.0 5.651557" Properties=species:S:1:pos:R:3:forces:R:3 energy=-26.710002999999688 stress="0.03832739041778387 0.0 0.0 0.0 0.06368837449599091 -0.0 0.0 -0.0 0.06368837449599091" pbc="T T T" 
Se       0.00000000       0.00000000       0.00000000      -0.00000059       0.00000172       0.00000172
Se       0.00000000       0.00000000       2.82577800      -0.00000062       0.00000172       0.00000031
Se       0.00000000       2.82577800       0.00000000      -0.00000062       0.00000031       0.00000172
Se       0.00000000       2.82577800       2.82577800      -0.00000059       0.00000031       0.00000031
Se       3.52577900       0.00000000       0.00000000      -0.00000229       0.00000170       0.00000170
Se       3.52577900       0.00000000       2.82577800      -0.00000231       0.00000175       0.00000036
Se       3.52577900       2.82577800       0.00000000      -0.00000231       0.00000036       0.00000175
Se       3.52577900       2.82577800       2.82577800      -0.00000229       0.00000031       0.00000031
8
Lattice="5.451557 0.0 0.0 0.0 5.651557 0.0 0.0 0.0 5.651557" Properties=species:S:1:pos:R:3:forces:R:3 energy=-28.16888599999993 stress="-0.03733440289061018 -0.0 -0.0 -0.0 -0.01715843884333729 0.0 -0.0 0.0 -0.01715843884333729" pbc="T T T" 
Se       0.00000000       0.00000000       0.00000000      -0.00000041       0.00000111       0.00000111
Se       0.00000000       0.00000000       2.82577800      -0.00000033       0.00000111      -0.00000026
Se       0.00000000       2.82577800       0.00000000      -0.00000033      -0.00000026       0.00000111
Se       0.00000000       2.82577800       2.82577800      -0.00000026      -0.00000028      -0.00000031
Se       2.72577800       0.00000000       0.00000000       0.00000044       0.00000100       0.00000103
Se       2.72577800       0.00000000       2.82577800       0.00000033       0.00000103      -0.00000023
Se       2.72577800       2.82577800       0.00000000       0.00000031      -0.00000021       0.00000105
Se       2.72577800       2.82577800       2.82577800       0.00000023      -0.00000026      -0.00000026
8
Lattice="5.651557 0.0 0.0 0.0 5.651557 0.0 0.0 0.0 5.651557" Properties=species:S:1:pos:R:3:forces:R:3 energy=-28.284370999999737 stress="-0.0016912464401793294 -0.0 -0.0 -0.0 -0.0016912464401793294 -0.0 -0.0 -0.0 -0.0016912464401793294" pbc="T T T" 
Se       0.00000000       0.00000000       0.00000000       0.00000213       0.00000213       0.00000213
Se       0.00000000       0.00000000       2.82577800       0.00000216       0.00000216      -0.00000108
Se       0.00000000       2.82577800       0.00000000       0.00000216      -0.00000108       0.00000216
Se       0.00000000       2.82577800       2.82577800       0.00000211      -0.00000113      -0.00000116
Se       2.82577800       0.00000000       0.00000000      -0.00000108       0.00000216       0.00000216
Se       2.82577800       0.00000000       2.82577800      -0.00000113       0.00000211      -0.00000116
Se       2.82577800       2.82577800       0.00000000      -0.00000113      -0.00000113       0.00000213
Se       2.82577800       2.82577800       2.82577800      -0.00000113      -0.00000113      -0.00000113
8
Lattice="5.851557 0.0 0.0 0.0 5.651557 0.0 0.0 0.0 5.651557" Properties=species:S:1:pos:R:3:forces:R:3 energy=-28.21298399999978 stress="0.027589903653765856 0.0 0.0 0.0 0.008282057689657766 0.0 0.0 0.0 0.008282057689657766" pbc="T T T" 
Se       0.00000000       0.00000000       0.00000000      -0.00000023      -0.00000105      -0.00000105
Se       0.00000000       0.00000000       2.82577800      -0.00000023      -0.00000100       0.00000219
Se       0.00000000       2.82577800       0.00000000      -0.00000023       0.00000219      -0.00000100
Se       0.00000000       2.82577800       2.82577800      -0.00000018       0.00000213       0.00000213
Se       2.92577900       0.00000000       0.00000000      -0.00000167      -0.00000103      -0.00000103
Se       2.92577900       0.00000000       2.82577800      -0.00000170      -0.00000100       0.00000216
Se       2.92577900       2.82577800       0.00000000      -0.00000170       0.00000216      -0.00000100
Se       2.92577900       2.82577800       2.82577800      -0.00000175       0.00000211       0.00000213
8
Lattice="6.051557 0.0 0.0 0.0 5.651557 0.0 0.0 0.0 5.651557" Properties=species:S:1:pos:R:3:forces:R:3 energy=-27.979947999999695 stress="0.03970728958984984 -0.0 -0.0 -0.0 0.02205882999454528 0.0 -0.0 0.0 0.02205882999454528" pbc="T T T" 
Se       0.00000000       0.00000000       0.00000000      -0.00000247       0.00000100       0.00000100
Se       0.00000000       0.00000000       2.82577800      -0.00000242       0.00000105       0.00000028
Se       0.00000000       2.82577800       0.00000000      -0.00000242       0.00000028       0.00000105
Se       0.00000000       2.82577800       2.82577800      -0.00000244       0.00000028       0.00000028
Se       3.02577900       0.00000000       0.00000000      -0.00000031       0.00000100       0.00000100
Se       3.02577900       0.00000000       2.82577800      -0.00000031       0.00000105       0.00000033
Se       3.02577900       2.82577800       0.00000000      -0.00000031       0.00000033       0.00000105
Se       3.02577900       2.82577800       2.82577800      -0.00000033       0.00000028       0.00000028
8
Lattice="6.251557 0.0 0.0 0.0 5.651557 0.0 0.0 0.0 5.651557" Properties=species:S:1:pos:R:3:forces:R:3 energy=-27.71297400000003 stress="0.041756617523878214 -0.0 -0.0 -0.0 0.033823092488233515 -0.0 -0.0 -0.0 0.033823092488233515" pbc="T T T" 
Se       0.00000000       0.00000000       0.00000000       0.00000247       0.00000087       0.00000090
Se       0.00000000       0.00000000       2.82577800       0.00000244       0.00000085       0.00000062
Se       0.00000000       2.82577800       0.00000000       0.00000244       0.00000062       0.00000085
Se       0.00000000       2.82577800       2.82577800       0.00000244       0.00000064       0.00000062
Se       3.12577800       0.00000000       0.00000000       0.00000080       0.00000085       0.00000085
Se       3.12577800       0.00000000       2.82577800       0.00000077       0.00000087       0.00000064
Se       3.12577800       2.82577800       0.00000000       0.00000077       0.00000067       0.00000087
Se       3.12577800       2.82577800       2.82577800       0.00000077       0.00000064       0.00000064
8
Lattice="6.451557 0.0 0.0 0.0 5.651557 0.0 0.0 0.0 5.651557" Properties=species:S:1:pos:R:3:forces:R:3 energy=-27.461771999999655 stress="0.037580469147921826 -0.0 -0.0 -0.0 0.04429807797252989 -0.0 -0.0 -0.0 0.04429807797252989" pbc="T T T" 
Se       0.00000000       0.00000000       0.00000000       0.00000262       0.00000105       0.00000105
Se       0.00000000       0.00000000       2.82577800       0.00000260       0.00000103       0.00000067
Se       0.00000000       2.82577800       0.00000000       0.00000260       0.00000067       0.00000105
Se       0.00000000       2.82577800       2.82577800       0.00000262       0.00000064       0.00000064
Se       3.22577800       0.00000000       0.00000000       0.00000095       0.00000105       0.00000105
Se       3.22577800       0.00000000       2.82577800       0.00000093       0.00000108       0.00000064
Se       3.22577800       2.82577800       0.00000000       0.00000093       0.00000064       0.00000108
Se       3.22577800       2.82577800       2.82577800       0.00000093       0.00000059       0.00000059
8
Lattice="6.651557 0.0 0.0 0.0 5.651557 0.0 0.0 0.0 5.651557" Properties=species:S:1:pos:R:3:forces:R:3 energy=-27.208280999999715 stress="0.03932331604952248 0.0 0.0 0.0 0.051138260846955504 0.0 0.0 0.0 0.051138260846955504" pbc="T T T" 
Se       0.00000000       0.00000000       0.00000000       0.00000149      -0.00000051      -0.00000049
Se       0.00000000       0.00000000       2.82577800       0.00000152      -0.00000049       0.00000231
Se       0.00000000       2.82577800       0.00000000       0.00000152       0.00000234      -0.00000049
Se       0.00000000       2.82577800       2.82577800       0.00000149       0.00000231       0.00000229
Se       3.32577900       0.00000000       0.00000000      -0.00000504      -0.00000049      -0.00000046
Se       3.32577900       0.00000000       2.82577800      -0.00000504      -0.00000046       0.00000226
Se       3.32577900       2.82577800       0.00000000      -0.00000504       0.00000226      -0.00000046
Se       3.32577900       2.82577800       2.82577800      -0.00000507       0.00000226       0.00000226
8
Lattice="7.051557 0.0 0.0 0.0 5.651557 0.0 0.0 0.0 5.651557" Properties=species:S:1:pos:R:3:forces:R:3 energy=-26.710002999999688 stress="0.03832739041778387 0.0 0.0 0.0 0.06368837449599091 -0.0 0.0 -0.0 0.06368837449599091" pbc="T T T" 
Se       0.00000000       0.00000000       0.00000000      -0.00000059       0.00000172       0.00000172
Se       0.00000000       0.00000000       2.82577800      -0.00000062       0.00000172       0.00000031
Se       0.00000000       2.82577800       0.00000000      -0.00000062       0.00000031       0.00000172
Se       0.00000000       2.82577800       2.82577800      -0.00000059       0.00000031       0.00000031
Se       3.52577900       0.00000000       0.00000000      -0.00000229       0.00000170       0.00000170
Se       3.52577900       0.00000000       2.82577800      -0.00000231       0.00000175       0.00000036
Se       3.52577900       2.82577800       0.00000000      -0.00000231       0.00000036       0.00000175
Se       3.52577900       2.82577800       2.82577800      -0.00000229       0.00000031       0.00000031
8
Lattice="7.451557 0.0 0.0 0.0 5.651557 0.0 0.0 0.0 5.651557" Properties=species:S:1:pos:R:3:forces:R:3 energy=-26.184802999999647 stress="0.03677974383821477 -0.0 -0.0 -0.0 0.06949333459012218 0.0 -0.0 0.0 0.06949333459012218" pbc="T T T" 
Se       0.00000000       0.00000000       0.00000000       0.00000031       0.00000221       0.00000221
Se       0.00000000       0.00000000       2.82577800       0.00000031       0.00000229      -0.00000010
Se       0.00000000       2.82577800       0.00000000       0.00000031      -0.00000010       0.00000229
Se       0.00000000       2.82577800       2.82577800       0.00000033      -0.00000015      -0.00000015
Se       3.72577800       0.00000000       0.00000000       0.00000159       0.00000221       0.00000221
Se       3.72577800       0.00000000       2.82577800       0.00000159       0.00000224      -0.00000010
Se       3.72577800       2.82577800       0.00000000       0.00000159      -0.00000010       0.00000224
Se       3.72577800       2.82577800       2.82577800       0.00000159      -0.00000013      -0.00000013
8
Lattice="7.851557 0.0 0.0 0.0 5.651557 0.0 0.0 0.0 5.651557" Properties=species:S:1:pos:R:3:forces:R:3 energy=-25.716457999999875 stress="0.03477834373490158 -0.0 -0.0 -0.0 0.071834636665289 -0.0 -0.0 -0.0 0.071834636665289" pbc="T T T" 
Se       0.00000000       0.00000000       0.00000000      -0.00000013       0.00000206       0.00000208
Se       0.00000000       0.00000000       2.82577800      -0.00000013       0.00000208       0.00000013
Se       0.00000000       2.82577800       0.00000000      -0.00000013       0.00000013       0.00000208
Se       0.00000000       2.82577800       2.82577800      -0.00000013       0.00000013       0.00000013
Se       3.92577900       0.00000000       0.00000000      -0.00000108       0.00000208       0.00000208
Se       3.92577900       0.00000000       2.82577800      -0.00000108       0.00000208       0.00000013
Se       3.92577900       2.82577800       0.00000000      -0.00000108       0.00000010       0.00000206
Se       3.92577900       2.82577800       2.82577800      -0.00000111       0.00000013       0.00000013
8
Lattice="8.251557 0.0 0.0 0.0 5.651557 0.0 0.0 0.0 5.651557" Properties=species:S:1:pos:R:3:forces:R:3 energy=-25.3715729999999 stress="0.023716012784925123 0.0 0.0 0.0 0.074451018780346 -0.0 0.0 -0.0 0.074451018780346" pbc="T T T" 
Se       0.00000000       0.00000000       0.00000000       0.00000015       0.00000314       0.00000314
Se       0.00000000       0.00000000       2.82577800       0.00000015       0.00000314      -0.00000090
Se       0.00000000       2.82577800       0.00000000       0.00000015      -0.00000090       0.00000314
Se       0.00000000       2.82577800       2.82577800       0.00000015      -0.00000087      -0.00000087
Se       4.12577800       0.00000000       0.00000000       0.00000049       0.00000314       0.00000314
Se       4.12577800       0.00000000       2.82577800       0.00000062       0.00000314      -0.00000085
Se       4.12577800       2.82577800       0.00000000       0.00000062      -0.00000085       0.00000314
Se       4.12577800       2.82577800       2.82577800       0.00000057      -0.00000085      -0.00000085
8
Lattice="8.651557 0.0 0.0 0.0 5.651557 0.0 0.0 0.0 5.651557" Properties=species:S:1:pos:R:3:forces:R:3 energy=-25.08531499999981 stress="0.020595837552752804 -0.0 -0.0 -0.0 0.07158599956648305 -0.0 -0.0 -0.0 0.07158599956648305" pbc="T T T" 
Se       0.00000000       0.00000000       0.00000000      -0.00000018       0.00000249       0.00000249
Se       0.00000000       0.00000000       2.82577800      -0.00000018       0.00000249      -0.00000018
Se       0.00000000       2.82577800       0.00000000      -0.00000018      -0.00000018       0.00000249
Se       0.00000000       2.82577800       2.82577800      -0.00000021      -0.00000018      -0.00000018
Se       4.32577900       0.00000000       0.00000000      -0.00000036       0.00000255       0.00000255
Se       4.32577900       0.00000000       2.82577800      -0.00000036       0.00000255      -0.00000026
Se       4.32577900       2.82577800       0.00000000      -0.00000036      -0.00000026       0.00000255
Se       4.32577900       2.82577800       2.82577800      -0.00000033      -0.00000026      -0.00000026
8
Lattice="9.051557 0.0 0.0 0.0 5.651557 0.0 0.0 0.0 5.651557" Properties=species:S:1:pos:R:3:forces:R:3 energy=-24.862650999999914 stress="0.014900872748270552 -0.0 -0.0 -0.0 0.06920843026309305 -0.0 -0.0 -0.0 0.06920843026309305" pbc="T T T" 
Se       0.00000000       0.00000000       0.00000000       0.00000015       0.00000288       0.00000288
Se       0.00000000       0.00000000       2.82577800       0.00000015       0.00000288      -0.00000057
Se       0.00000000       2.82577800       0.00000000       0.00000015      -0.00000057       0.00000291
Se       0.00000000       2.82577800       2.82577800       0.00000015      -0.00000059      -0.00000059
Se       4.52577800       0.00000000       0.00000000       0.00000036       0.00000288       0.00000288
Se       4.52577800       0.00000000       2.82577800       0.00000028       0.00000288      -0.00000057
Se       4.52577800       2.82577800       0.00000000       0.00000028      -0.00000057       0.00000288
Se       4.52577800       2.82577800       2.82577800       0.00000028      -0.00000054      -0.00000054
8
Lattice="9.451557 0.0 0.0 0.0 5.651557 0.0 0.0 0.0 5.651557" Properties=species:S:1:pos:R:3:forces:R:3 energy=-24.70211900000004 stress="0.010071638816994102 -0.0 -0.0 -0.0 0.06609293763507106 0.0 -0.0 0.0 0.06609293763507106" pbc="T T T" 
Se       0.00000000       0.00000000       0.00000000      -0.00000015       0.00000316       0.00000319
Se       0.00000000       0.00000000       2.82577800      -0.00000015       0.00000321      -0.00000082
Se       0.00000000       2.82577800       0.00000000      -0.00000015      -0.00000082       0.00000321
Se       0.00000000       2.82577800       2.82577800      -0.00000015      -0.00000087      -0.00000087
Se       4.72577900       0.00000000       0.00000000      -0.00000021       0.00000324       0.00000324
Se       4.72577900       0.00000000       2.82577800      -0.00000018       0.00000319      -0.00000085
Se       4.72577900       2.82577800       0.00000000      -0.00000018      -0.00000085       0.00000319
Se       4.72577900       2.82577800       2.82577800      -0.00000018      -0.00000082      -0.00000082
8
Lattice="10.251557 0.0 0.0 0.0 5.651557 0.0 0.0 0.0 5.651557" Properties=species:S:1:pos:R:3:forces:R:3 energy=-24.564078999999765 stress="0.002369214068533519 -0.0 -0.0 -0.0 0.06137048544157576 -0.0 -0.0 -0.0 0.06137048544157576" pbc="T T T" 
Se       0.00000000       0.00000000       0.00000000      -0.00000010       0.00000350       0.00000350
Se       0.00000000       0.00000000       2.82577800      -0.00000008       0.00000347      -0.00000113
Se       0.00000000       2.82577800       0.00000000      -0.00000008      -0.00000113       0.00000347
Se       0.00000000       2.82577800       2.82577800      -0.00000008      -0.00000111      -0.00000113
Se       5.12577900       0.00000000       0.00000000      -0.00000028       0.00000350       0.00000350
Se       5.12577900       0.00000000       2.82577800      -0.00000021       0.00000352      -0.00000113
Se       5.12577900       2.82577800       0.00000000      -0.00000023      -0.00000113       0.00000352
Se       5.12577900       2.82577800       2.82577800      -0.00000026      -0.00000116      -0.00000116
8
Lattice="11.051557 0.0 0.0 0.0 5.651557 0.0 0.0 0.0 5.651557" Properties=species:S:1:pos:R:3:forces:R:3 energy=-24.540970000000016 stress="0.00012321676019113248 -0.0 -0.0 -0.0 0.05713713584237118 0.0 -0.0 0.0 0.05713713584237118" pbc="T T T" 
Se       0.00000000       0.00000000       0.00000000       0.00000000       0.00000365       0.00000365
Se       0.00000000       0.00000000       2.82577800       0.00000000       0.00000370      -0.00000131
Se       0.00000000       2.82577800       0.00000000       0.00000000      -0.00000131       0.00000370
Se       0.00000000       2.82577800       2.82577800       0.00000000      -0.00000136      -0.00000136
Se       5.52577800       0.00000000       0.00000000       0.00000036       0.00000383       0.00000383
Se       5.52577800       0.00000000       2.82577800       0.00000031       0.00000381      -0.00000147
Se       5.52577800       2.82577800       0.00000000       0.00000031      -0.00000147       0.00000381
Se       5.52577800       2.82577800       2.82577800       0.00000031      -0.00000144      -0.00000144
8
Lattice="11.851557 0.0 0.0 0.0 5.651557 0.0 0.0 0.0 5.651557" Properties=species:S:1:pos:R:3:forces:R:3 energy=-24.540352999999868 stress="3.681812282909398e-05 0.0 0.0 0.0 0.053408772965261406 0.0 0.0 0.0 0.053408772965261406" pbc="T T T" 
Se       0.00000000       0.00000000       0.00000000      -0.00000000       0.00000357       0.00000355
Se       0.00000000       0.00000000       2.82577800      -0.00000000       0.00000363      -0.00000121
Se       0.00000000       2.82577800       0.00000000      -0.00000000      -0.00000121       0.00000363
Se       0.00000000       2.82577800       2.82577800      -0.00000000      -0.00000126      -0.00000126
Se       5.92577800       0.00000000       0.00000000       0.00000033       0.00000350       0.00000350
Se       5.92577800       0.00000000       2.82577800       0.00000036       0.00000352      -0.00000116
Se       5.92577800       2.82577800       0.00000000       0.00000036      -0.00000116       0.00000352
Se       5.92577800       2.82577800       2.82577800       0.00000033      -0.00000116      -0.00000116
8
Lattice="12.651557 0.0 0.0 0.0 5.651557 0.0 0.0 0.0 5.651557" Properties=species:S:1:pos:R:3:forces:R:3 energy=-24.54038999999966 stress="7.345261412288076e-07 0.0 0.0 0.0 0.04960640657942283 -0.0 0.0 -0.0 0.04960640657942283" pbc="T T T" 
Se       0.00000000       0.00000000       0.00000000      -0.00000000       0.00000375       0.00000373
Se       0.00000000       0.00000000       2.82577800       0.00000000       0.00000378      -0.00000134
Se       0.00000000       2.82577800       0.00000000       0.00000000      -0.00000134       0.00000378
Se       0.00000000       2.82577800       2.82577800       0.00000000      -0.00000139      -0.00000139
Se       6.32577799       0.00000000       0.00000000       0.00000031       0.00000383       0.00000383
Se       6.32577799       0.00000000       2.82577800       0.00000033       0.00000381      -0.00000144
Se       6.32577799       2.82577800       0.00000000       0.00000033      -0.00000144       0.00000381
Se       6.32577799       2.82577800       2.82577800       0.00000036      -0.00000141      -0.00000141
8
Lattice="13.451557 0.0 0.0 0.0 5.651557 0.0 0.0 0.0 5.651557" Properties=species:S:1:pos:R:3:forces:R:3 energy=-24.540412999999717 stress="-1.0375181744856908e-05 -0.0 -0.0 -0.0 0.047050990134087804 -0.0 -0.0 -0.0 0.047050990134087804" pbc="T T T" 
Se       0.00000000       0.00000000       0.00000000       0.00000000       0.00000347       0.00000347
Se       0.00000000       0.00000000       2.82577800      -0.00000000       0.00000355      -0.00000111
Se       0.00000000       2.82577800       0.00000000      -0.00000000      -0.00000113       0.00000355
Se       0.00000000       2.82577800       2.82577800      -0.00000000      -0.00000116      -0.00000118
Se       6.72577800       0.00000000       0.00000000       0.00000039       0.00000360       0.00000360
Se       6.72577800       0.00000000       2.82577800       0.00000039       0.00000363      -0.00000123
Se       6.72577800       2.82577800       0.00000000       0.00000039      -0.00000123       0.00000363
Se       6.72577800       2.82577800       2.82577800       0.00000036      -0.00000126      -0.00000126
8
Lattice="14.251557 0.0 0.0 0.0 5.651557 0.0 0.0 0.0 5.651557" Properties=species:S:1:pos:R:3:forces:R:3 energy=-24.540403999999853 stress="-1.4231443986308145e-05 0.0 0.0 0.0 0.044023732458780926 0.0 0.0 0.0 0.044023732458780926" pbc="T T T" 
Se       0.00000000       0.00000000       0.00000000      -0.00000000       0.00000370       0.00000370
Se       0.00000000       0.00000000       2.82577800       0.00000000       0.00000368      -0.00000134
Se       0.00000000       2.82577800       0.00000000       0.00000000      -0.00000134       0.00000368
Se       0.00000000       2.82577800       2.82577800       0.00000000      -0.00000131      -0.00000131
Se       7.12577900       0.00000000       0.00000000      -0.00000031       0.00000373       0.00000373
Se       7.12577900       0.00000000       2.82577800      -0.00000033       0.00000375      -0.00000136
Se       7.12577900       2.82577800       0.00000000      -0.00000033      -0.00000136       0.00000375
Se       7.12577900       2.82577800       2.82577800      -0.00000036      -0.00000136      -0.00000136
8
Lattice="15.051557 0.0 0.0 0.0 5.651557 0.0 0.0 0.0 5.651557" Properties=species:S:1:pos:R:3:forces:R:3 energy=-24.540412999999717 stress="-2.90137825785379e-05 0.0 0.0 0.0 0.041984136996123834 -0.0 0.0 -0.0 0.041984136996123834" pbc="T T T" 
Se       0.00000000       0.00000000       0.00000000       0.00000000       0.00000368       0.00000368
Se       0.00000000       0.00000000       2.82577800      -0.00000000       0.00000363      -0.00000131
Se       0.00000000       2.82577800       0.00000000      -0.00000000      -0.00000131       0.00000363
Se       0.00000000       2.82577800       2.82577800      -0.00000000      -0.00000126      -0.00000126
Se       7.52577900       0.00000000       0.00000000      -0.00000036       0.00000375       0.00000373
Se       7.52577900       0.00000000       2.82577800      -0.00000036       0.00000370      -0.00000139
Se       7.52577900       2.82577800       0.00000000      -0.00000036      -0.00000139       0.00000370
Se       7.52577900       2.82577800       2.82577800      -0.00000033      -0.00000134      -0.00000134
8
Lattice="15.851557 0.0 0.0 0.0 5.651557 0.0 0.0 0.0 5.651557" Properties=species:S:1:pos:R:3:forces:R:3 energy=-24.54041099999995 stress="-8.355234856477685e-06 0.0 0.0 0.0 0.03961216845456071 0.0 0.0 0.0 0.03961216845456071" pbc="T T T" 
Se       0.00000000       0.00000000       0.00000000       0.00000000       0.00000368       0.00000368
Se       0.00000000       0.00000000       2.82577800       0.00000000       0.00000375      -0.00000131
Se       0.00000000       2.82577800       0.00000000       0.00000000      -0.00000131       0.00000375
Se       0.00000000       2.82577800       2.82577800       0.00000000      -0.00000134      -0.00000134
Se       7.92577901       0.00000000       0.00000000      -0.00000031       0.00000363       0.00000363
Se       7.92577901       0.00000000       2.82577800      -0.00000041       0.00000363      -0.00000121
Se       7.92577901       2.82577800       0.00000000      -0.00000039      -0.00000121       0.00000363
Se       7.92577901       2.82577800       2.82577800      -0.00000033      -0.00000121      -0.00000121
8
Lattice="16.651557 0.0 0.0 0.0 5.651557 0.0 0.0 0.0 5.651557" Properties=species:S:1:pos:R:3:forces:R:3 energy=-24.540516000000025 stress="-1.0926076350778512e-05 0.0 0.0 0.0 0.03780091880605812 0.0 0.0 0.0 0.03780091880605812" pbc="T T T" 
Se       0.00000000       0.00000000       0.00000000      -0.00000000       0.00000360       0.00000360
Se       0.00000000       0.00000000       2.82577800      -0.00000000       0.00000355      -0.00000116
Se       0.00000000       2.82577800       0.00000000       0.00000000      -0.00000116       0.00000355
Se       0.00000000       2.82577800       2.82577800      -0.00000000      -0.00000116      -0.00000116
Se       8.32577900       0.00000000       0.00000000      -0.00000036       0.00000355       0.00000355
Se       8.32577900       0.00000000       2.82577800      -0.00000036       0.00000357      -0.00000116
Se       8.32577900       2.82577800       0.00000000      -0.00000036      -0.00000116       0.00000357
Se       8.32577900       2.82577800       2.82577800      -0.00000036      -0.00000118      -0.00000118
8
Lattice="17.451557 0.0 0.0 0.0 5.651557 0.0 0.0 0.0 5.651557" Properties=species:S:1:pos:R:3:forces:R:3 energy=-24.540490999999747 stress="8.079787553516883e-06 0.0 0.0 0.0 0.03616898535178302 0.0 0.0 0.0 0.03616898535178302" pbc="T T T" 
Se       0.00000000       0.00000000       0.00000000      -0.00000000       0.00000365       0.00000363
Se       0.00000000       0.00000000       2.82577800      -0.00000000       0.00000370      -0.00000126
Se       0.00000000       2.82577800       0.00000000      -0.00000000      -0.00000126       0.00000368
Se       0.00000000       2.82577800       2.82577800      -0.00000000      -0.00000129      -0.00000129
Se       8.72577901       0.00000000       0.00000000      -0.00000028       0.00000368       0.00000368
Se       8.72577901       0.00000000       2.82577800      -0.00000036       0.00000370      -0.00000129
Se       8.72577901       2.82577800       0.00000000      -0.00000036      -0.00000129       0.00000370
Se       8.72577901       2.82577800       2.82577800      -0.00000033      -0.00000134      -0.00000134
8
Lattice="19.051557 0.0 0.0 0.0 5.651557 0.0 0.0 0.0 5.651557" Properties=species:S:1:pos:R:3:forces:R:3 energy=-24.540427999999793 stress="-1.8363153530720188e-05 -0.0 -0.0 -0.0 0.03295598437851291 -0.0 -0.0 -0.0 0.03295598437851291" pbc="T T T" 
Se       0.00000000       0.00000000       0.00000000      -0.00000000       0.00000342       0.00000342
Se       0.00000000       0.00000000       2.82577800      -0.00000000       0.00000334      -0.00000103
Se       0.00000000       2.82577800       0.00000000      -0.00000000      -0.00000103       0.00000334
Se       0.00000000       2.82577800       2.82577800      -0.00000000      -0.00000095      -0.00000095
Se       9.52577800       0.00000000       0.00000000       0.00000036       0.00000345       0.00000345
Se       9.52577800       0.00000000       2.82577800       0.00000033       0.00000342      -0.00000105
Se       9.52577800       2.82577800       0.00000000       0.00000033      -0.00000105       0.00000342
Se       9.52577800       2.82577800       2.82577800       0.00000039      -0.00000100      -0.00000100
8
Lattice="20.651557 0.0 0.0 0.0 5.651557 0.0 0.0 0.0 5.651557" Properties=species:S:1:pos:R:3:forces:R:3 energy=-24.54055500000004 stress="-2.846288797261629e-06 0.0 0.0 0.0 0.0305475649771913 0.0 0.0 0.0 0.0305475649771913" pbc="T T T" 
Se       0.00000000       0.00000000       0.00000000      -0.00000000       0.00000363       0.00000363
Se       0.00000000       0.00000000       2.82577800      -0.00000000       0.00000357      -0.00000123
Se       0.00000000       2.82577800       0.00000000      -0.00000000      -0.00000123       0.00000357
Se       0.00000000       2.82577800       2.82577800      -0.00000000      -0.00000118      -0.00000118
Se      10.32577800       0.00000000       0.00000000       0.00000039       0.00000352       0.00000352
Se      10.32577800       0.00000000       2.82577800       0.00000036       0.00000352      -0.00000113
Se      10.32577800       2.82577800       0.00000000       0.00000036      -0.00000113       0.00000352
Se      10.32577800       2.82577800       2.82577800       0.00000036      -0.00000116      -0.00000116
8
Lattice="22.251557 0.0 0.0 0.0 5.651557 0.0 0.0 0.0 5.651557" Properties=species:S:1:pos:R:3:forces:R:3 energy=-24.540518999999676 stress="6.518919503405667e-06 -0.0 -0.0 -0.0 0.028331775056406952 0.0 -0.0 0.0 0.028331775056406952" pbc="T T T" 
Se       0.00000000       0.00000000       0.00000000       0.00000000       0.00000347       0.00000347
Se       0.00000000       0.00000000       2.82577800       0.00000000       0.00000350      -0.00000105
Se       0.00000000       2.82577800       0.00000000       0.00000000      -0.00000105       0.00000350
Se       0.00000000       2.82577800       2.82577800       0.00000000      -0.00000111      -0.00000111