54
Lattice="9.225333 0.0 0.0 0.0 9.525333 0.0 0.0 0.0 9.525333" Properties=species:S:1:pos:R:3:forces:R:3 energy=-264.41531399999985 stress="-0.11406915525980421 -5.013140913886612e-05 5.013140913886612e-05 -5.013140913886612e-05 -0.04609316804592544 -4.407156847372845e-06 5.013140913886612e-05 -4.407156847372845e-06 -0.04609316804592544" pbc="T T T" 
Mo      -3.07203600      -3.17828600      -3.17193600      -0.00001566       0.00040965      -0.00040904
Mo      -1.53448000      -1.59073100      -1.58438000      -0.00001741       0.00041050      -0.00041097
Mo      -3.07203600      -3.17828600       0.00317500      -0.00001566       0.00040965      -0.00040935
Mo      -1.53448000      -1.59073100       1.59073100      -0.00001741       0.00041050      -0.00041071
Mo      -3.07203600      -3.17828600       3.17828600      -0.00001563       0.00040971      -0.00040960
Mo      -1.53448000      -1.59073100       4.76584200      -0.00001741       0.00041050      -0.00041043
Mo      -3.07203600      -0.00317500      -3.17193600      -0.00001566       0.00040922      -0.00040904
Mo      -1.53448000       1.58438000      -1.58438000      -0.00001743       0.00041061      -0.00041097
Mo      -3.07203600      -0.00317500       0.00317500      -0.00001566       0.00040922      -0.00040935
Mo      -1.53448000       1.58438000       1.59073100      -0.00001743       0.00041055      -0.00041076
Mo      -3.07203600      -0.00317500       3.17828600      -0.00001563       0.00040917      -0.00040960
Mo      -1.53448000       1.58438000       4.76584200      -0.00001741       0.00041055      -0.00041040
Mo      -3.07203600       3.17193600      -3.17193600      -0.00001563       0.00040914      -0.00040899
Mo      -1.53448000       4.75949100      -1.58438000      -0.00001741       0.00041099      -0.00041097
Mo      -3.07203600       3.17193600       0.00317500      -0.00001563       0.00040914      -0.00040940
Mo      -1.53448000       4.75949100       1.59073100      -0.00001741       0.00041104      -0.00041076
Mo      -3.07203600       3.17193600       3.17828600      -0.00001561       0.00040914      -0.00040960
Mo      -1.53448000       4.75949100       4.76584200      -0.00001741       0.00041104      -0.00041040
Mo       0.00307500      -3.17828600      -3.17193600      -0.00001592       0.00040965      -0.00040904
Mo       1.54063100      -1.59073100      -1.58438000      -0.00001723       0.00041050      -0.00041097
Mo       0.00307500      -3.17828600       0.00317500      -0.00001592       0.00040965      -0.00040935
Mo       1.54063100      -1.59073100       1.59073100      -0.00001723       0.00041050      -0.00041073
Mo       0.00307500      -3.17828600       3.17828600      -0.00001592       0.00040971      -0.00040960
Mo       1.54063100      -1.59073100       4.76584200      -0.00001725       0.00041050      -0.00041043
Mo       0.00307500      -0.00317500      -3.17193600      -0.00001592       0.00040922      -0.00040904
Mo       1.54063100       1.58438000      -1.58438000      -0.00001723       0.00041058      -0.00041097
Mo       0.00307500      -0.00317500       0.00317500      -0.00001592       0.00040922      -0.00040935
Mo       1.54063100       1.58438000       1.59073100      -0.00001725       0.00041053      -0.00041076
Mo       0.00307500      -0.00317500       3.17828600      -0.00001592       0.00040917      -0.00040960
Mo       1.54063100       1.58438000       4.76584200      -0.00001725       0.00041053      -0.00041037
Mo       0.00307500       3.17193600      -3.17193600      -0.00001594       0.00040914      -0.00040899
Mo       1.54063100       4.75949100      -1.58438000      -0.00001723       0.00041102      -0.00041097
Mo       0.00307500       3.17193600       0.00317500      -0.00001592       0.00040914      -0.00040940
Mo       1.54063100       4.75949100       1.59073100      -0.00001725       0.00041107      -0.00041076
Mo       0.00307500       3.17193600       3.17828600      -0.00001594       0.00040914      -0.00040958
Mo       1.54063100       4.75949100       4.76584200      -0.00001725       0.00041107      -0.00041037
Mo       3.07818600      -3.17828600      -3.17193600      -0.00001610       0.00040968      -0.00040901
Mo       4.61574200      -1.59073100      -1.58438000      -0.00001699       0.00041050      -0.00041097
Mo       3.07818600      -3.17828600       0.00317500      -0.00001610       0.00040968      -0.00040937
Mo       4.61574200      -1.59073100       1.59073100      -0.00001697       0.00041050      -0.00041073
Mo       3.07818600      -3.17828600       3.17828600      -0.00001610       0.00040973      -0.00040960
Mo       4.61574200      -1.59073100       4.76584200      -0.00001697       0.00041050      -0.00041043
Mo       3.07818600      -0.00317500      -3.17193600      -0.00001610       0.00040919      -0.00040901
Mo       4.61574200       1.58438000      -1.58438000      -0.00001697       0.00041058      -0.00041097
Mo       3.07818600      -0.00317500       0.00317500      -0.00001610       0.00040919      -0.00040937
Mo       4.61574200       1.58438000       1.59073100      -0.00001697       0.00041053      -0.00041079
Mo       3.07818600      -0.00317500       3.17828600      -0.00001610       0.00040917      -0.00040960
Mo       4.61574200       1.58438000       4.76584200      -0.00001697       0.00041053      -0.00041037
Mo       3.07818600       3.17193600      -3.17193600      -0.00001610       0.00040914      -0.00040896
Mo       4.61574200       4.75949100      -1.58438000      -0.00001697       0.00041102      -0.00041097
Mo       3.07818600       3.17193600       0.00317500      -0.00001610       0.00040914      -0.00040942
Mo       4.61574200       4.75949100       1.59073100      -0.00001694       0.00041107      -0.00041079
Mo       3.07818600       3.17193600       3.17828600      -0.00001610       0.00040914      -0.00040960
Mo       4.61574200       4.75949100       4.76584200      -0.00001694       0.00041107      -0.00041037
54
Lattice="9.525333 0.0 0.0 0.0 9.525333 0.0 0.0 0.0 9.525333" Properties=species:S:1:pos:R:3:forces:R:3 energy=-266.1599490000008 stress="-0.017409095889031622 -1.4415075521615347e-05 1.4415075521615347e-05 -1.4415075521615347e-05 -0.017409095889031622 -1.4415075521615347e-05 1.4415075521615347e-05 -1.4415075521615347e-05 -0.017409095889031622" pbc="T T T" 
Mo      -3.16876100      -3.18146100      -3.16876100      -0.00252464       0.00252526      -0.00252441
Mo      -1.58120500      -1.59390600      -1.58120500      -0.00252624       0.00252544      -0.00252673
Mo      -3.16876100      -3.18146100       0.00635000      -0.00252464       0.00252523      -0.00252459
Mo      -1.58120500      -1.59390600       1.59390600      -0.00252624       0.00252544      -0.00252567
Mo      -3.16876100      -3.18146100       3.18146100      -0.00252459       0.00252529      -0.00252562
Mo      -1.58120500      -1.59390600       4.76901700      -0.00252624       0.00252544      -0.00252554
Mo      -3.16876100      -0.00635000      -3.16876100      -0.00252464       0.00252503      -0.00252441
Mo      -1.58120500       1.58120500      -1.58120500      -0.00252624       0.00252613      -0.00252673
Mo      -3.16876100      -0.00635000       0.00635000      -0.00252464       0.00252503      -0.00252459
Mo      -1.58120500       1.58120500       1.59390600      -0.00252624       0.00252611      -0.00252570
Mo      -3.16876100      -0.00635000       3.18146100      -0.00252462       0.00252498      -0.00252562
Mo      -1.58120500       1.58120500       4.76901700      -0.00252624       0.00252611      -0.00252549
Mo      -3.16876100       3.16876100      -3.16876100      -0.00252459       0.00252436      -0.00252436
Mo      -1.58120500       4.75631600      -1.58120500      -0.00252624       0.00252629      -0.00252673
Mo      -3.16876100       3.16876100       0.00635000      -0.00252459       0.00252436      -0.00252464
Mo      -1.58120500       4.75631600       1.59390600      -0.00252624       0.00252634      -0.00252570
Mo      -3.16876100       3.16876100       3.18146100      -0.00252457       0.00252436      -0.00252562
Mo      -1.58120500       4.75631600       4.76901700      -0.00252624       0.00252634      -0.00252549
Mo       0.00635000      -3.18146100      -3.16876100      -0.00252482       0.00252526      -0.00252441
Mo       1.59390600      -1.59390600      -1.58120500      -0.00252590       0.00252544      -0.00252673
Mo       0.00635000      -3.18146100       0.00635000      -0.00252482       0.00252523      -0.00252459
Mo       1.59390600      -1.59390600       1.59390600      -0.00252593       0.00252544      -0.00252570
Mo       0.00635000      -3.18146100       3.18146100      -0.00252487       0.00252529      -0.00252562
Mo       1.59390600      -1.59390600       4.76901700      -0.00252595       0.00252544      -0.00252549
Mo       0.00635000      -0.00635000      -3.16876100      -0.00252485       0.00252503      -0.00252441
Mo       1.59390600       1.58120500      -1.58120500      -0.00252595       0.00252611      -0.00252673
Mo       0.00635000      -0.00635000       0.00635000      -0.00252485       0.00252503      -0.00252459
Mo       1.59390600       1.58120500       1.59390600      -0.00252598       0.00252606      -0.00252575
Mo       0.00635000      -0.00635000       3.18146100      -0.00252487       0.00252498      -0.00252562
Mo       1.59390600       1.58120500       4.76901700      -0.00252601       0.00252606      -0.00252547
Mo       0.00635000       3.16876100      -3.16876100      -0.00252487       0.00252436      -0.00252436
Mo       1.59390600       4.75631600      -1.58120500      -0.00252595       0.00252634      -0.00252673
Mo       0.00635000       3.16876100       0.00635000      -0.00252487       0.00252436      -0.00252464
Mo       1.59390600       4.75631600       1.59390600      -0.00252598       0.00252639      -0.00252575
Mo       0.00635000       3.16876100       3.18146100      -0.00252493       0.00252436      -0.00252562
Mo       1.59390600       4.75631600       4.76901700      -0.00252598       0.00252639      -0.00252547
Mo       3.18146100      -3.18146100      -3.16876100      -0.00252513       0.00252529      -0.00252436
Mo       4.76901700      -1.59390600      -1.58120500      -0.00252577       0.00252544      -0.00252673
Mo       3.18146100      -3.18146100       0.00635000      -0.00252513       0.00252529      -0.00252462
Mo       4.76901700      -1.59390600       1.59390600      -0.00252572       0.00252544      -0.00252570
Mo       3.18146100      -3.18146100       3.18146100      -0.00252513       0.00252534      -0.00252562
Mo       4.76901700      -1.59390600       4.76901700      -0.00252572       0.00252544      -0.00252549
Mo       3.18146100      -0.00635000      -3.16876100      -0.00252516       0.00252498      -0.00252436
Mo       4.76901700       1.58120500      -1.58120500      -0.00252572       0.00252611      -0.00252673
Mo       3.18146100      -0.00635000       0.00635000      -0.00252516       0.00252498      -0.00252462
Mo       4.76901700       1.58120500       1.59390600      -0.00252567       0.00252606      -0.00252575
Mo       3.18146100      -0.00635000       3.18146100      -0.00252516       0.00252493      -0.00252562
Mo       4.76901700       1.58120500       4.76901700      -0.00252567       0.00252606      -0.00252547
Mo       3.18146100       3.16876100      -3.16876100      -0.00252516       0.00252436      -0.00252433
Mo       4.76901700       4.75631600      -1.58120500      -0.00252572       0.00252634      -0.00252673
Mo       3.18146100       3.16876100       0.00635000      -0.00252516       0.00252436      -0.00252467
Mo       4.76901700       4.75631600       1.59390600      -0.00252567       0.00252639      -0.00252575
Mo       3.18146100       3.16876100       3.18146100      -0.00252516       0.00252436      -0.00252562
Mo       4.76901700       4.75631600       4.76901700      -0.00252567       0.00252639      -0.00252547
54
Lattice="9.825333 0.0 0.0 0.0 9.525333 0.0 0.0 0.0 9.525333" Properties=species:S:1:pos:R:3:forces:R:3 energy=-265.4806970000009 stress="0.062121813868285164 -7.694161329371759e-05 7.694161329371759e-05 -7.694161329371759e-05 0.00655188136399331 4.3704305403114047e-05 7.694161329371759e-05 4.3704305403114047e-05 0.006551789548225656" pbc="T T T" 
Mo      -3.26528600      -3.18463600      -3.16558600       0.00149844       0.00008649      -0.00008654
Mo      -1.62773000      -1.59708100      -1.57803000       0.00149821       0.00008755      -0.00008744
Mo      -3.26528600      -3.18463600       0.00952500       0.00149844       0.00008649      -0.00008654
Mo      -1.62773000      -1.59708100       1.59708100       0.00149821       0.00008755      -0.00008755
Mo      -3.26528600      -3.18463600       3.18463600       0.00149844       0.00008649      -0.00008644
Mo      -1.62773000      -1.59708100       4.77219200       0.00149821       0.00008755      -0.00008755
Mo      -3.26528600      -0.00952500      -3.16558600       0.00149844       0.00008647      -0.00008654
Mo      -1.62773000       1.57803000      -1.57803000       0.00149821       0.00008749      -0.00008744
Mo      -3.26528600      -0.00952500       0.00952500       0.00149844       0.00008647      -0.00008654
Mo      -1.62773000       1.57803000       1.59708100       0.00149821       0.00008749      -0.00008755
Mo      -3.26528600      -0.00952500       3.18463600       0.00149844       0.00008647      -0.00008644
Mo      -1.62773000       1.57803000       4.77219200       0.00149821       0.00008749      -0.00008755
Mo      -3.26528600       3.16558600      -3.16558600       0.00149844       0.00008654      -0.00008654
Mo      -1.62773000       4.75314100      -1.57803000       0.00149821       0.00008752      -0.00008744
Mo      -3.26528600       3.16558600       0.00952500       0.00149844       0.00008654      -0.00008654
Mo      -1.62773000       4.75314100       1.59708100       0.00149821       0.00008752      -0.00008755
Mo      -3.26528600       3.16558600       3.18463600       0.00149844       0.00008654      -0.00008644
Mo      -1.62773000       4.75314100       4.77219200       0.00149821       0.00008752      -0.00008755
Mo       0.00982500      -3.18463600      -3.16558600       0.00149844       0.00008649      -0.00008654
Mo       1.64738100      -1.59708100      -1.57803000       0.00149813       0.00008755      -0.00008744
Mo       0.00982500      -3.18463600       0.00952500       0.00149844       0.00008649      -0.00008654
Mo       1.64738100      -1.59708100       1.59708100       0.00149813       0.00008755      -0.00008755
Mo       0.00982500      -3.18463600       3.18463600       0.00149844       0.00008649      -0.00008644
Mo       1.64738100      -1.59708100       4.77219200       0.00149813       0.00008755      -0.00008755
Mo       0.00982500      -0.00952500      -3.16558600       0.00149844       0.00008647      -0.00008654
Mo       1.64738100       1.57803000      -1.57803000       0.00149813       0.00008749      -0.00008744
Mo       0.00982500      -0.00952500       0.00952500       0.00149844       0.00008647      -0.00008654
Mo       1.64738100       1.57803000       1.59708100       0.00149813       0.00008749      -0.00008755
Mo       0.00982500      -0.00952500       3.18463600       0.00149844       0.00008647      -0.00008644
Mo       1.64738100       1.57803000       4.77219200       0.00149813       0.00008749      -0.00008755
Mo       0.00982500       3.16558600      -3.16558600       0.00149844       0.00008654      -0.00008654
Mo       1.64738100       4.75314100      -1.57803000       0.00149813       0.00008752      -0.00008744
Mo       0.00982500       3.16558600       0.00952500       0.00149844       0.00008654      -0.00008654
Mo       1.64738100       4.75314100       1.59708100       0.00149813       0.00008752      -0.00008755
Mo       0.00982500       3.16558600       3.18463600       0.00149844       0.00008654      -0.00008644
Mo       1.64738100       4.75314100       4.77219200       0.00149813       0.00008752      -0.00008755
Mo       3.28493600      -3.18463600      -3.16558600       0.00149852       0.00008649      -0.00008654
Mo       4.92249200      -1.59708100      -1.57803000       0.00149813       0.00008755      -0.00008744
Mo       3.28493600      -3.18463600       0.00952500       0.00149852       0.00008649      -0.00008654
Mo       4.92249200      -1.59708100       1.59708100       0.00149813       0.00008755      -0.00008755
Mo       3.28493600      -3.18463600       3.18463600       0.00149852       0.00008649      -0.00008644
Mo       4.92249200      -1.59708100       4.77219200       0.00149813       0.00008755      -0.00008755
Mo       3.28493600      -0.00952500      -3.16558600       0.00149852       0.00008647      -0.00008654
Mo       4.92249200       1.57803000      -1.57803000       0.00149813       0.00008749      -0.00008744
Mo       3.28493600      -0.00952500       0.00952500       0.00149852       0.00008647      -0.00008654
Mo       4.92249200       1.57803000       1.59708100       0.00149813       0.00008749      -0.00008755
Mo       3.28493600      -0.00952500       3.18463600       0.00149852       0.00008647      -0.00008644
Mo       4.92249200       1.57803000       4.77219200       0.00149813       0.00008749      -0.00008755
Mo       3.28493600       3.16558600      -3.16558600       0.00149852       0.00008654      -0.00008654
Mo       4.92249200       4.75314100      -1.57803000       0.00149813       0.00008752      -0.00008744
Mo       3.28493600       3.16558600       0.00952500       0.00149852       0.00008654      -0.00008654
Mo       4.92249200       4.75314100       1.59708100       0.00149813       0.00008752      -0.00008755
Mo       3.28493600       3.16558600       3.18463600       0.00149852       0.00008654      -0.00008644
Mo       4.92249200       4.75314100       4.77219200       0.00149813       0.00008752      -0.00008755
54
Lattice="10.125333 0.0 0.0 0.0 9.525333 0.0 0.0 0.0 9.525333" Properties=species:S:1:pos:R:3:forces:R:3 energy=-262.8733110000012 stress="0.11894154260187784 -7.225900914338394e-05 7.225900914338394e-05 -7.225900914338394e-05 0.02954750763590828 6.417922158986706e-05 7.225900914338394e-05 6.417922158986706e-05 0.02954750763590828" pbc="T T T" 
Mo      -3.36161100      -3.18781100      -3.16241100       0.00087754       0.00024359      -0.00024153
Mo      -1.67405500      -1.60025600      -1.57485500       0.00087880       0.00024474      -0.00024389
Mo      -3.36161100      -3.18781100       0.01270000       0.00087759       0.00024359      -0.00024407
Mo      -1.67405500      -1.60025600       1.60025600       0.00087875       0.00024474      -0.00024847
Mo      -3.36161100      -3.18781100       3.18781100       0.00086867       0.00024243      -0.00024212
Mo      -1.67405500      -1.60025600       4.77536700       0.00087875       0.00024474      -0.00024066
Mo      -3.36161100      -0.01270000      -3.16241100       0.00087754       0.00024107      -0.00024153
Mo      -1.67405500       1.57485500      -1.57485500       0.00087875       0.00024022      -0.00024389
Mo      -3.36161100      -0.01270000       0.01270000       0.00087759       0.00024107      -0.00024407
Mo      -1.67405500       1.57485500       1.60025600       0.00087870       0.00024138      -0.00024729
Mo      -3.36161100      -0.01270000       3.18781100       0.00086865       0.00024222      -0.00024212
Mo      -1.67405500       1.57485500       4.77536700       0.00087867       0.00024138      -0.00024181
Mo      -3.36161100       3.16241100      -3.16241100       0.00086872       0.00024305      -0.00024271
Mo      -1.67405500       4.74996600      -1.57485500       0.00087875       0.00024798      -0.00024389
Mo      -3.36161100       3.16241100       0.01270000       0.00086878       0.00024305      -0.00024292
Mo      -1.67405500       4.74996600       1.60025600       0.00087870       0.00024683      -0.00024729
Mo      -3.36161100       3.16241100       3.18781100       0.00085983       0.00024305      -0.00024210
Mo      -1.67405500       4.74996600       4.77536700       0.00087867       0.00024683      -0.00024181
Mo       0.01350000      -3.18781100      -3.16241100       0.00087088       0.00024364      -0.00024148
Mo       1.70105600      -1.60025600      -1.57485500       0.00086960       0.00024474      -0.00024392
Mo       0.01350000      -3.18781100       0.01270000       0.00087083       0.00024364      -0.00024413
Mo       1.70105600      -1.60025600       1.60025600       0.00087849       0.00024474      -0.00024150
Mo       0.01350000      -3.18781100       3.18781100       0.00087970       0.00024248      -0.00024212
Mo       1.70105600      -1.60025600       4.77536700       0.00087855       0.00024474      -0.00024757
Mo       0.01350000      -0.01270000      -3.16241100       0.00087091       0.00024102      -0.00024148
Mo       1.70105600       1.57485500      -1.57485500       0.00087842       0.00024708      -0.00024392
Mo       0.01350000      -0.01270000       0.01270000       0.00087086       0.00024102      -0.00024410
Mo       1.70105600       1.57485500       1.60025600       0.00088731       0.00024824      -0.00024035
Mo       0.01350000      -0.01270000       3.18781100       0.00087973       0.00024217      -0.00024212
Mo       1.70105600       1.57485500       4.77536700       0.00088736       0.00024824      -0.00024873
Mo       0.01350000       3.16241100      -3.16241100       0.00087965       0.00024305      -0.00024264
Mo       1.70105600       4.74996600      -1.57485500       0.00087842       0.00024112      -0.00024392
Mo       0.01350000       3.16241100       0.01270000       0.00087963       0.00024302      -0.00024297
Mo       1.70105600       4.74996600       1.60025600       0.00088731       0.00023996      -0.00024035
Mo       0.01350000       3.16241100       3.18781100       0.00088850       0.00024302      -0.00024212
Mo       1.70105600       4.74996600       4.77536700       0.00088736       0.00023994      -0.00024873
Mo       3.38861100      -3.18781100      -3.16241100       0.00087412       0.00023672      -0.00024850
Mo       5.07616700      -1.60025600      -1.57485500       0.00088754       0.00024474      -0.00024392
Mo       3.38861100      -3.18781100       0.01270000       0.00087412       0.00023672      -0.00023713
Mo       5.07616700      -1.60025600       1.60025600       0.00087873       0.00024474      -0.00024145
Mo       3.38861100      -3.18781100       3.18781100       0.00087418       0.00023556      -0.00024207
Mo       5.07616700      -1.60025600       4.77536700       0.00087870       0.00024474      -0.00024762
Mo       3.38861100      -0.01270000      -3.16241100       0.00087412       0.00024796      -0.00024850
Mo       5.07616700       1.57485500      -1.57485500       0.00087878       0.00024713      -0.00024392
Mo       3.38861100      -0.01270000       0.01270000       0.00087410       0.00024796      -0.00023713
Mo       5.07616700       1.57485500       1.60025600       0.00086996       0.00024829      -0.00024030
Mo       3.38861100      -0.01270000       3.18781100       0.00087418       0.00024911      -0.00024210
Mo       5.07616700       1.57485500       4.77536700       0.00086991       0.00024829      -0.00024878
Mo       3.38861100       3.16241100      -3.16241100       0.00087418       0.00024302      -0.00024965
Mo       5.07616700       4.74996600      -1.57485500       0.00087880       0.00024107      -0.00024395
Mo       3.38861100       3.16241100       0.01270000       0.00087418       0.00024302      -0.00023598
Mo       5.07616700       4.74996600       1.60025600       0.00086998       0.00023991      -0.00024030
Mo       3.38861100       3.16241100       3.18781100       0.00087423       0.00024302      -0.00024207
Mo       5.07616700       4.74996600       4.77536700       0.00086993       0.00023991      -0.00024878
54
Lattice="10.425333 0.0 0.0 0.0 9.525333 0.0 0.0 0.0 9.525333" Properties=species:S:1:pos:R:3:forces:R:3 energy=-258.96854800000074 stress="0.16582652982804794 -9.971192367181064e-05 9.971192367181064e-05 -9.971192367181064e-05 0.04964992725329063 0.00012881752201800213 9.971192367181064e-05 0.00012881752201800213 0.04964992725329063" pbc="T T T" 
Mo      -3.45773500      -3.19098700      -3.15923500      -0.00075043      -0.00053471       0.00053163
Mo      -1.72018000      -1.60343100      -1.57168000      -0.00071831      -0.00054543       0.00052494
Mo      -3.45773500      -3.19098700       0.01587600      -0.00075043      -0.00053469       0.00054713
Mo      -1.72018000      -1.60343100       1.60343100      -0.00071831      -0.00054541       0.00054536
Mo      -3.45773500      -3.19098700       3.19098700      -0.00074768      -0.00054384       0.00052183
Mo      -1.72018000      -1.60343100       4.77854200      -0.00071831      -0.00054541       0.00053610
Mo      -3.45773500      -0.01587600      -3.15923500      -0.00075040      -0.00052121       0.00053158
Mo      -1.72018000       1.57168000      -1.57168000      -0.00071834      -0.00052656       0.00052489
Mo      -3.45773500      -0.01587600       0.01587600      -0.00075043      -0.00052124       0.00054718
Mo      -1.72018000       1.57168000       1.60343100      -0.00071834      -0.00051743       0.00055456
Mo      -3.45773500      -0.01587600       3.19098700      -0.00074765      -0.00051204       0.00052183
Mo      -1.72018000       1.57168000       4.77854200      -0.00071834      -0.00051741       0.00052695
Mo      -3.45773500       3.15923500      -3.15923500      -0.00074786      -0.00054461       0.00052242
Mo      -1.72018000       4.74679100      -1.57168000      -0.00071834      -0.00053438       0.00052489
Mo      -3.45773500       3.15923500       0.01587600      -0.00074788      -0.00054464       0.00055631
Mo      -1.72018000       4.74679100       1.60343100      -0.00071834      -0.00054353       0.00055454
Mo      -3.45773500       3.15923500       3.19098700      -0.00074511      -0.00054466       0.00052186
Mo      -1.72018000       4.74679100       4.77854200      -0.00071834      -0.00054358       0.00052697
Mo       0.01737600      -3.19098700      -3.15923500      -0.00068358      -0.00053471       0.00053163
Mo       1.75493100      -1.60343100      -1.57168000      -0.00069448      -0.00054543       0.00052494
Mo       0.01737600      -3.19098700       0.01587600      -0.00068355      -0.00053469       0.00054713
Mo       1.75493100      -1.60343100       1.60343100      -0.00069721      -0.00054541       0.00054333
Mo       0.01737600      -3.19098700       3.19098700      -0.00068636      -0.00054384       0.00052183
Mo       1.75493100      -1.60343100       4.77854200      -0.00069723      -0.00054541       0.00053813
Mo       0.01737600      -0.01587600      -3.15923500      -0.00068358      -0.00052121       0.00053160
Mo       1.75493100       1.57168000      -1.57168000      -0.00069703      -0.00052844       0.00052492
Mo       0.01737600      -0.01587600       0.01587600      -0.00068355      -0.00052127       0.00054716
Mo       1.75493100       1.57168000       1.60343100      -0.00069975      -0.00051931       0.00055253
Mo       0.01737600      -0.01587600       3.19098700      -0.00068636      -0.00051206       0.00052183
Mo       1.75493100       1.57168000       4.77854200      -0.00069978      -0.00051926       0.00052898
Mo       0.01737600       3.15923500      -3.15923500      -0.00068612      -0.00054464       0.00052242
Mo       1.75493100       4.74679100      -1.57168000      -0.00069700      -0.00053250       0.00052489
Mo       0.01737600       3.15923500       0.01587600      -0.00068610      -0.00054464       0.00055628
Mo       1.75493100       4.74679100       1.60343100      -0.00069975      -0.00054168       0.00055250
Mo       0.01737600       3.15923500       3.19098700      -0.00068890      -0.00054469       0.00052188
Mo       1.75493100       4.74679100       4.77854200      -0.00069975      -0.00054171       0.00052900
Mo       3.49248700      -3.19098700      -3.15923500      -0.00073914      -0.00053284       0.00053366
Mo       5.23004200      -1.60343100      -1.57168000      -0.00077452      -0.00054543       0.00052494
Mo       3.49248700      -3.19098700       0.01587600      -0.00073914      -0.00053281       0.00054510
Mo       5.23004200      -1.60343100       1.60343100      -0.00077174      -0.00054541       0.00054333
Mo       3.49248700      -3.19098700       3.19098700      -0.00073914      -0.00054196       0.00052181
Mo       5.23004200      -1.60343100       4.77854200      -0.00077174      -0.00054541       0.00053811
Mo       3.49248700      -0.01587600      -3.15923500      -0.00073914      -0.00052309       0.00053363
Mo       5.23004200       1.57168000      -1.57168000      -0.00077197      -0.00052841       0.00052489
Mo       3.49248700      -0.01587600       0.01587600      -0.00073914      -0.00052312       0.00054513
Mo       5.23004200       1.57168000       1.60343100      -0.00076922      -0.00051929       0.00055253
Mo       3.49248700      -0.01587600       3.19098700      -0.00073914      -0.00051391       0.00052181
Mo       5.23004200       1.57168000       4.77854200      -0.00076920      -0.00051926       0.00052895
Mo       3.49248700       3.15923500      -3.15923500      -0.00073912      -0.00054461       0.00052445
Mo       5.23004200       4.74679100      -1.57168000      -0.00077197      -0.00053250       0.00052489
Mo       3.49248700       3.15923500       0.01587600      -0.00073912      -0.00054464       0.00055425
Mo       5.23004200       4.74679100       1.60343100      -0.00076922      -0.00054168       0.00055250