64
Lattice="9.919588 0.0 0.0 0.0 10.691536 0.0 0.0 0.0 9.332308" Properties=species:S:1:pos:R:3:forces:R:3 energy=-287.1081749999994 stress="-0.13383139745802997 1.652683817764817e-05 -3.186007137579953e-05 1.652683817764817e-05 -0.058123512634273816 4.104164814115962e-05 -3.186007137579953e-05 4.104164814115962e-05 -0.05129802028267277" pbc="T T T" 
Mo      -2.47741700       0.77021800       1.17120500       0.00441950       0.00169235       0.00046830
Mo      -1.23746900       3.44605800       1.17120500       0.00365315      -0.05691286      -0.00138241
Mo      -1.23746900       1.89052600       3.50428200      -0.00056927       0.02421396      -0.00068417
Mo      -2.47741700       4.56334499       3.50428200      -0.00043287       0.02672500      -0.00055207
Mo      -2.47741700       0.77021800       5.83735900       0.00441952       0.00169230       0.00049915
Mo      -1.23746900       3.44605800       5.83735900       0.00365315      -0.05691312      -0.00135155
Mo      -1.23746900       1.89052600       8.17043600      -0.00056927       0.02421409      -0.00071595
Mo      -2.47741700       4.56334499       8.17043600      -0.00043287       0.02672515      -0.00058374
Mo      -2.47741700       6.11598600       1.17120500       0.00441950       0.00164414       0.00046830
Mo      -1.23746900       8.79182600       1.17120500       0.00365313      -0.05688767      -0.00138241
Mo      -1.23746900       7.23629400       3.50428200      -0.00056927       0.02419344      -0.00068417
Mo      -2.47741700       9.90911299       3.50428200      -0.00043287       0.02677514      -0.00055207
Mo      -2.47741700       6.11598600       5.83735900       0.00441952       0.00164409       0.00049915
Mo      -1.23746900       8.79182600       5.83735900       0.00365313      -0.05688792      -0.00135155
Mo      -1.23746900       7.23629400       8.17043600      -0.00056927       0.02419359      -0.00071595
Mo      -2.47741700       9.90911299       8.17043600      -0.00043287       0.02677529      -0.00058374
Mo       0.00248000       0.77021800       1.17120500       0.00432547       0.00169240       0.00046830
Mo       1.24242800       3.44605800       1.17120500       0.00355938      -0.05691276      -0.00138241
Mo       1.24242800       1.89052600       3.50428200      -0.00066304       0.02421393      -0.00068417
Mo       0.00248000       4.56334499       3.50428200      -0.00052690       0.02672503      -0.00055207
Mo       0.00248000       0.77021800       5.83735900       0.00432547       0.00169235       0.00049918
Mo       1.24242800       3.44605800       5.83735900       0.00355938      -0.05691302      -0.00135153
Mo       1.24242800       1.89052600       8.17043600      -0.00066304       0.02421409      -0.00071595
Mo       0.00248000       4.56334499       8.17043600      -0.00052690       0.02672515      -0.00058374
Mo       0.00248000       6.11598600       1.17120500       0.00432547       0.00164419       0.00046830
Mo       1.24242800       8.79182600       1.17120500       0.00355936      -0.05688756      -0.00138241
Mo       1.24242800       7.23629400       3.50428200      -0.00066304       0.02419344      -0.00068417
Mo       0.00248000       9.90911299       3.50428200      -0.00052690       0.02677516      -0.00055207
Mo       0.00248000       6.11598600       5.83735900       0.00432547       0.00164414       0.00049918
Mo       1.24242800       8.79182600       5.83735900       0.00355936      -0.05688782      -0.00135155
Mo       1.24242800       7.23629400       8.17043600      -0.00066304       0.02419357      -0.00071595
Mo       0.00248000       9.90911299       8.17043600      -0.00052690       0.02677532      -0.00058374
Mo       2.48237700       0.77021800       1.17120500       0.00428695       0.00169227       0.00046830
Mo       3.72232500       3.44605800       1.17120500       0.00359867      -0.05691253      -0.00138241
Mo       3.72232500       1.89052600       3.50428200      -0.00062375       0.02421391      -0.00068417
Mo       2.48237700       4.56334499       3.50428200      -0.00056539       0.02672497      -0.00055207
Mo       2.48237700       0.77021800       5.83735900       0.00428695       0.00169222       0.00049918
Mo       3.72232500       3.44605800       5.83735900       0.00359867      -0.05691279      -0.00135155
Mo       3.72232500       1.89052600       8.17043600      -0.00062375       0.02421406      -0.00071595
Mo       2.48237700       4.56334499       8.17043600      -0.00056539       0.02672513      -0.00058374
Mo       2.48237700       6.11598600       1.17120500       0.00428695       0.00164407       0.00046830
Mo       3.72232500       8.79182600       1.17120500       0.00359864      -0.05688733      -0.00138241
Mo       3.72232500       7.23629400       3.50428200      -0.00062375       0.02419341      -0.00068417
Mo       2.48237700       9.90911299       3.50428200      -0.00056536       0.02677511      -0.00055207
Mo       2.48237700       6.11598600       5.83735900       0.00428695       0.00164401       0.00049918
Mo       3.72232500       8.79182600       5.83735900       0.00359867      -0.05688759      -0.00135155
Mo       3.72232500       7.23629400       8.17043600      -0.00062375       0.02419354      -0.00071595
Mo       2.48237700       9.90911299       8.17043600      -0.00056536       0.02677526      -0.00058374
Mo       4.96227400       0.77021800       1.17120500       0.00438101       0.00169222       0.00046830
Mo       6.20222200       3.44605800       1.17120500       0.00369244      -0.05691266      -0.00138241
Mo       6.20222200       1.89052600       3.50428200      -0.00052996       0.02421393      -0.00068417
Mo       4.96227400       4.56334499       3.50428200      -0.00047136       0.02672495      -0.00055207
Mo       4.96227400       0.77021800       5.83735900       0.00438101       0.00169217       0.00049915
Mo       6.20222200       3.44605800       5.83735900       0.00369244      -0.05691289      -0.00135155
Mo       6.20222200       1.89052600       8.17043600      -0.00052996       0.02421406      -0.00071595
Mo       4.96227400       4.56334499       8.17043600      -0.00047136       0.02672510      -0.00058374
Mo       4.96227400       6.11598600       1.17120500       0.00438101       0.00164401       0.00046830
Mo       6.20222200       8.79182600       1.17120500       0.00369244      -0.05688744      -0.00138243
Mo       6.20222200       7.23629400       3.50428200      -0.00052996       0.02419341      -0.00068417
Mo       4.96227400       9.90911299       3.50428200      -0.00047136       0.02677511      -0.00055207
Mo       4.96227400       6.11598600       5.83735900       0.00438101       0.00164396       0.00049915
Mo       6.20222200       8.79182600       5.83735900       0.00369244      -0.05688769      -0.00135155
Mo       6.20222200       7.23629400       8.17043600      -0.00052996       0.02419357      -0.00071595
Mo       4.96227400       9.90911299       8.17043600      -0.00047136       0.02677524      -0.00058374
64
Lattice="10.319588 0.0 0.0 0.0 10.691536 0.0 0.0 0.0 9.332308" Properties=species:S:1:pos:R:3:forces:R:3 energy=-289.3461479999987 stress="-0.008636007473962398 -7.464621910237756e-05 -4.131709544412042e-06 -7.464621910237756e-05 -0.017542871462502916 -0.0002647966739129851 -4.131709544412042e-06 -0.0002647966739129851 -0.006223823626166994" pbc="T T T" 
Mo      -2.57473700       0.76487200       1.17587100       0.00081409      -0.02808429       0.00312968
Mo      -1.28478899       3.44071301       1.17587100      -0.00216600      -0.07971351       0.00181890
Mo      -1.28478899       1.88518000       3.50894800      -0.00325080       0.04841704       0.00387509
Mo      -2.57473700       4.55800000       3.50894800      -0.00332986       0.05024388       0.00374977
Mo      -2.57473700       0.76487200       5.84202500       0.00081409      -0.02808601       0.00317410
Mo      -1.28478899       3.44071301       5.84202500      -0.00216600      -0.07971541       0.00186333
Mo      -1.28478899       1.88518000       8.17510200      -0.00325083       0.04841881       0.00382922
Mo      -2.57473700       4.55800000       8.17510200      -0.00332986       0.05024566       0.00370401
Mo      -2.57473700       6.11064000       1.17587100       0.00081409      -0.02809650       0.00312968
Mo      -1.28478899       8.78648101       1.17587100      -0.00216597      -0.07972027       0.00181890
Mo      -1.28478899       7.23094800       3.50894800      -0.00325080       0.04840313       0.00387509
Mo      -2.57473700       9.90376800       3.50894800      -0.00332984       0.05024561       0.00374977
Mo      -2.57473700       6.11064000       5.84202500       0.00081409      -0.02809825       0.00317413
Mo      -1.28478899       8.78648101       5.84202500      -0.00216600      -0.07972218       0.00186333
Mo      -1.28478899       7.23094800       8.17510200      -0.00325083       0.04840490       0.00382922
Mo      -2.57473700       9.90376800       8.17510200      -0.00332986       0.05024736       0.00370401
Mo       0.00516000       0.76487200       1.17587100       0.00084299      -0.02808390       0.00312968
Mo       1.29510801       3.44071301       1.17587100      -0.00213731      -0.07971397       0.00181890
Mo       1.29510801       1.88518000       3.50894800      -0.00322213       0.04841748       0.00387509
Mo       0.00516000       4.55800000       3.50894800      -0.00330096       0.05024350       0.00374977
Mo       0.00516000       0.76487200       5.84202500       0.00084299      -0.02808563       0.00317410
Mo       1.29510801       3.44071301       5.84202500      -0.00213731      -0.07971588       0.00186333
Mo       1.29510801       1.88518000       8.17510200      -0.00322213       0.04841925       0.00382922
Mo       0.00516000       4.55800000       8.17510200      -0.00330096       0.05024525       0.00370401
Mo       0.00516000       6.11064000       1.17587100       0.00084301      -0.02809612       0.00312968
Mo       1.29510801       8.78648101       1.17587100      -0.00213731      -0.07972074       0.00181890
Mo       1.29510801       7.23094800       3.50894800      -0.00322213       0.04840357       0.00387509
Mo       0.00516000       9.90376800       3.50894800      -0.00330094       0.05024520       0.00374977
Mo       0.00516000       6.11064000       5.84202500       0.00084299      -0.02809784       0.00317410
Mo       1.29510801       8.78648101       5.84202500      -0.00213731      -0.07972264       0.00186333
Mo       1.29510801       7.23094800       8.17510200      -0.00322213       0.04840534       0.00382922
Mo       0.00516000       9.90376800       8.17510200      -0.00330096       0.05024697       0.00370401
Mo       2.58505700       0.76487200       1.17587100       0.00085463      -0.02808488       0.00312968
Mo       3.87500501       3.44071301       1.17587100      -0.00214952      -0.07971503       0.00181890
Mo       3.87500501       1.88518000       3.50894800      -0.00323435       0.04841850       0.00387509
Mo       2.58505700       4.55800000       3.50894800      -0.00328932       0.05024450       0.00374977
Mo       2.58505700       0.76487200       5.84202500       0.00085463      -0.02808663       0.00317410
Mo       3.87500501       3.44071301       5.84202500      -0.00214955      -0.07971693       0.00186333
Mo       3.87500501       1.88518000       8.17510200      -0.00323437       0.04842025       0.00382922
Mo       2.58505700       4.55800000       8.17510200      -0.00328934       0.05024628       0.00370403
Mo       2.58505700       6.11064000       1.17587100       0.00085463      -0.02809709       0.00312968
Mo       3.87500501       8.78648101       1.17587100      -0.00214952      -0.07972179       0.00181890
Mo       3.87500501       7.23094800       3.50894800      -0.00323435       0.04840459       0.00387509
Mo       2.58505700       9.90376800       3.50894800      -0.00328932       0.05024622       0.00374977
Mo       2.58505700       6.11064000       5.84202500       0.00085463      -0.02809884       0.00317413
Mo       3.87500501       8.78648101       5.84202500      -0.00214955      -0.07972369       0.00186333
Mo       3.87500501       7.23094800       8.17510200      -0.00323437       0.04840634       0.00382922
Mo       2.58505700       9.90376800       8.17510200      -0.00328934       0.05024797       0.00370401
Mo       5.16495400       0.76487200       1.17587100       0.00082571      -0.02808529       0.00312968
Mo       6.45490201       3.44071301       1.17587100      -0.00217821      -0.07971457       0.00181890
Mo       6.45490201       1.88518000       3.50894800      -0.00326301       0.04841807       0.00387509
Mo       5.16495400       4.55800000       3.50894800      -0.00331821       0.05024491       0.00374977
Mo       5.16495400       0.76487200       5.84202500       0.00082571      -0.02808702       0.00317410
Mo       6.45490201       3.44071301       5.84202500      -0.00217821      -0.07971647       0.00186333
Mo       6.45490201       1.88518000       8.17510200      -0.00326304       0.04841982       0.00382922
Mo       5.16495400       4.55800000       8.17510200      -0.00331824       0.05024669       0.00370403
Mo       5.16495400       6.11064000       1.17587100       0.00082571      -0.02809751       0.00312968
Mo       6.45490201       8.78648101       1.17587100      -0.00217821      -0.07972133       0.00181890
Mo       6.45490201       7.23094800       3.50894800      -0.00326301       0.04840416       0.00387509
Mo       5.16495400       9.90376800       3.50894800      -0.00331821       0.05024664       0.00374977
Mo       5.16495400       6.11064000       5.84202500       0.00082571      -0.02809923       0.00317413
Mo       6.45490201       8.78648101       5.84202500      -0.00217821      -0.07972323       0.00186333
Mo       6.45490201       7.23094800       8.17510200      -0.00326304       0.04840591       0.00382922
Mo       5.16495400       9.90376800       8.17510200      -0.00331824       0.05024838       0.00370401
64
Lattice="10.719588 0.0 0.0 0.0 10.691536 0.0 0.0 0.0 9.332308" Properties=species:S:1:pos:R:3:forces:R:3 energy=-287.5800959999997 stress="0.08019987944044094 -6.096566972199103e-05 -0.0001065981062458307 -6.096566972199103e-05 0.020730255836597676 -0.00048295093785794094 -0.0001065981062458307 -0.00048295093785794094 0.04007951071191754" pbc="T T T" 
Mo      -2.67266700       0.75984301       1.18098400      -0.00473870      -0.07992653      -0.00724442
Mo      -1.33279400       3.42992200       1.18097500      -0.00655989      -0.03781155      -0.00822524
Mo      -1.33350800       1.88165300       3.51250700      -0.01332572       0.04820875       0.00631466
Mo      -2.67344700       4.55445800       3.51249400      -0.01338182       0.05195807       0.00639603
Mo      -2.67266700       0.75984301       5.84713800      -0.00473870      -0.07992614      -0.00725031
Mo      -1.33279400       3.42992200       5.84712900      -0.00655989      -0.03781113      -0.00823113
Mo      -1.33350800       1.88165300       8.17866100      -0.01332572       0.04820837       0.00632103
Mo      -2.67344700       4.55445800       8.17864800      -0.01338180       0.05195768       0.00640243
Mo      -2.67266700       6.10561101       1.18098400      -0.00473870      -0.07992753      -0.00724442
Mo      -1.33279400       8.77569000       1.18097500      -0.00655989      -0.03781635      -0.00822524
Mo      -1.33350800       7.22742100       3.51250700      -0.01332572       0.04820531       0.00631466
Mo      -2.67344700       9.90022600       3.51249400      -0.01338180       0.05195459       0.00639603
Mo      -2.67266700       6.10561101       5.84713800      -0.00473870      -0.07992714      -0.00725031
Mo      -1.33279400       8.77569000       5.84712900      -0.00655989      -0.03781594      -0.00823113
Mo      -1.33350800       7.22742100       8.17866100      -0.01332572       0.04820495       0.00632103
Mo      -2.67344700       9.90022600       8.17864800      -0.01338180       0.05195421       0.00640243
Mo       0.00723000       0.75984301       1.18098400      -0.00476485      -0.07992725      -0.00724439
Mo       1.34710300       3.42992200       1.18097500      -0.00658496      -0.03781065      -0.00822524
Mo       1.34638900       1.88165300       3.51250700      -0.01335076       0.04820785       0.00631466
Mo       0.00645000       4.55445800       3.51249400      -0.01340800       0.05195876       0.00639603
Mo       0.00723000       0.75984301       5.84713800      -0.00476485      -0.07992684      -0.00725031
Mo       1.34710300       3.42992200       5.84712900      -0.00658496      -0.03781026      -0.00823113
Mo       1.34638900       1.88165300       8.17866100      -0.01335076       0.04820749       0.00632106
Mo       0.00645000       4.55445800       8.17864800      -0.01340797       0.05195840       0.00640243
Mo       0.00723000       6.10561101       1.18098400      -0.00476485      -0.07992825      -0.00724439
Mo       1.34710300       8.77569000       1.18097500      -0.00658496      -0.03781545      -0.00822524
Mo       1.34638900       7.22742100       3.51250700      -0.01335079       0.04820443       0.00631466
Mo       0.00645000       9.90022600       3.51249400      -0.01340797       0.05195529       0.00639603
Mo       0.00723000       6.10561101       5.84713800      -0.00476485      -0.07992784      -0.00725028
Mo       1.34710300       8.77569000       5.84712900      -0.00658496      -0.03781504      -0.00823113
Mo       1.34638900       7.22742100       8.17866100      -0.01335079       0.04820405       0.00632106
Mo       0.00645000       9.90022600       8.17864800      -0.01340797       0.05195490       0.00640243
Mo       2.68712700       0.75984301       1.18098400      -0.00477415      -0.07992524      -0.00724442
Mo       4.02700000       3.42992200       1.18097500      -0.00657300      -0.03780879      -0.00822527
Mo       4.02628600       1.88165300       3.51250700      -0.01333881       0.04820598       0.00631468
Mo       2.68634700       4.55445800       3.51249400      -0.01341728       0.05195678       0.00639606
Mo       2.68712700       0.75984301       5.84713800      -0.00477415      -0.07992486      -0.00725031
Mo       4.02700000       3.42992200       5.84712900      -0.00657300      -0.03780838      -0.00823116
Mo       4.02628600       1.88165300       8.17866100      -0.01333881       0.04820562       0.00632106
Mo       2.68634700       4.55445800       8.17864800      -0.01341725       0.05195642       0.00640246
Mo       2.68712700       6.10561101       1.18098400      -0.00477415      -0.07992624      -0.00724442
Mo       4.02700000       8.77569000       1.18097500      -0.00657300      -0.03781358      -0.00822527
Mo       4.02628600       7.22742100       3.51250700      -0.01333881       0.04820256       0.00631468
Mo       2.68634700       9.90022600       3.51249400      -0.01341725       0.05195331       0.00639606
Mo       2.68712700       6.10561101       5.84713800      -0.00477415      -0.07992583      -0.00725031
Mo       4.02700000       8.77569000       5.84712900      -0.00657300      -0.03781319      -0.00823116
Mo       4.02628600       7.22742100       8.17866100      -0.01333881       0.04820217       0.00632106
Mo       2.68634700       9.90022600       8.17864800      -0.01341725       0.05195295       0.00640246
Mo       5.36702400       0.75984301       1.18098400      -0.00474798      -0.07992455      -0.00724442
Mo       6.70689700       3.42992200       1.18097500      -0.00654793      -0.03780967      -0.00822524
Mo       6.70618300       1.88165300       3.51250700      -0.01331376       0.04820688       0.00631466
Mo       5.36624400       4.55445800       3.51249400      -0.01339108       0.05195609       0.00639606
Mo       5.36702400       0.75984301       5.84713800      -0.00474798      -0.07992416      -0.00725031
Mo       6.70689700       3.42992200       5.84712900      -0.00654793      -0.03780928      -0.00823116
Mo       6.70618300       1.88165300       8.17866100      -0.01331376       0.04820649       0.00632106
Mo       5.36624400       4.55445800       8.17864800      -0.01339108       0.05195573       0.00640246
Mo       5.36702400       6.10561101       1.18098400      -0.00474798      -0.07992555      -0.00724442
Mo       6.70689700       8.77569000       1.18097500      -0.00654793      -0.03781448      -0.00822524
Mo       6.70618300       7.22742100       3.51250700      -0.01331379       0.04820343       0.00631466
Mo       5.36624400       9.90022600       3.51249400      -0.01339108       0.05195261       0.00639606
Mo       5.36702400       6.10561101       5.84713800      -0.00474798      -0.07992514      -0.00725031
Mo       6.70689700       8.77569000       5.84712900      -0.00654793      -0.03781407      -0.00823116
Mo       6.70618300       7.22742100       8.17866100      -0.01331376       0.04820307       0.00632106
Mo       5.36624400       9.90022600       8.17864800      -0.01339105       0.05195225       0.00640246
64
Lattice="11.119588 0.0 0.0 0.0 10.691536 0.0 0.0 0.0 9.332308" Properties=species:S:1:pos:R:3:forces:R:3 energy=-295.83586900000046 stress="0.09751715956181894 -0.07695538565886563 7.464621910237756e-05 -0.07695538565886563 0.05430214038453094 -6.941272034612232e-05 7.464621910237756e-05 -6.941272034612232e-05 0.11524549887498214" pbc="T T T" 
Mo      -2.48929700       0.62649500       1.16368600       0.01305293       0.00794952      -0.00216633
Mo      -1.09693500       3.29867600       1.16342400       0.00397264       0.01000529       0.00148173
Mo      -1.78973499       1.96978400       3.49691700      -0.02549138      -0.02832819      -0.00058115
Mo      -3.17643200       4.63967200       3.49641200      -0.01939013       0.00604721       0.00273139
Mo      -2.48929700       0.62649500       5.82984000       0.01305295       0.00794949      -0.00215564
Mo      -1.09693500       3.29867600       5.82957800       0.00397264       0.01000529       0.00149242
Mo      -1.78973499       1.96978400       8.16307100      -0.02549138      -0.02832816      -0.00059272
Mo      -3.17643200       4.63967200       8.16256600      -0.01939013       0.00604724       0.00271979
Mo      -2.48929700       5.97226300       1.16368600       0.01305010       0.00797081      -0.00216633
Mo      -1.09693500       8.64444400       1.16342400       0.00397336       0.00999995       0.00148173
Mo      -1.78973499       7.31555200       3.49691700      -0.02549288      -0.02831692      -0.00058115
Mo      -3.17643200       9.98544000       3.49641200      -0.01938764       0.00602841       0.00273136
Mo      -2.48929700       5.97226300       5.82984000       0.01305010       0.00797081      -0.00215564
Mo      -1.09693500       8.64444400       5.82957800       0.00397336       0.00999992       0.00149242
Mo      -1.78973499       7.31555200       8.16307100      -0.02549290      -0.02831690      -0.00059272
Mo      -3.17643200       9.98544000       8.16256600      -0.01938764       0.00602844       0.00271979
Mo       0.29060000       0.62649500       1.16368600       0.01305125       0.00794975      -0.00216633
Mo       1.68296200       3.29867600       1.16342400       0.00397125       0.01000550       0.00148173
Mo       0.99016201       1.96978400       3.49691700      -0.02549303      -0.02832795      -0.00058115
Mo      -0.39653500       4.63967200       3.49641200      -0.01939154       0.00604742       0.00273139
Mo       0.29060000       0.62649500       5.82984000       0.01305125       0.00794972      -0.00215561
Mo       1.68296200       3.29867600       5.82957800       0.00397125       0.01000547       0.00149242
Mo       0.99016201       1.96978400       8.16307100      -0.02549306      -0.02832795      -0.00059272
Mo      -0.39653500       4.63967200       8.16256600      -0.01939154       0.00604744       0.00271979
Mo       0.29060000       5.97226300       1.16368600       0.01304840       0.00797104      -0.00216633
Mo       1.68296200       8.64444400       1.16342400       0.00397194       0.01000013       0.00148173
Mo       0.99016201       7.31555200       3.49691700      -0.02549455      -0.02831669      -0.00058115
Mo      -0.39653500       9.98544000       3.49641200      -0.01938905       0.00602862       0.00273136
Mo       0.29060000       5.97226300       5.82984000       0.01304840       0.00797101      -0.00215564
Mo       1.68296200       8.64444400       5.82957800       0.00397194       0.01000010       0.00149242
Mo       0.99016201       7.31555200       8.16307100      -0.02549455      -0.02831667      -0.00059272
Mo      -0.39653500       9.98544000       8.16256600      -0.01938905       0.00602865       0.00271979
Mo       3.07049700       0.62649500       1.16368600       0.01305095       0.00794980      -0.00216633
Mo       4.46285900       3.29867600       1.16342400       0.00397220       0.01000537       0.00148173
Mo       3.77005901       1.96978400       3.49691700      -0.02549270      -0.02832798      -0.00058115
Mo       2.38336200       4.63967200       3.49641200      -0.01939250       0.00604754       0.00273139
Mo       3.07049700       0.62649500       5.82984000       0.01305095       0.00794977      -0.00215561
Mo       4.46285900       3.29867600       5.82957800       0.00397220       0.01000535       0.00149242
Mo       3.77005901       1.96978400       8.16307100      -0.02549272      -0.02832798      -0.00059272
Mo       2.38336200       4.63967200       8.16256600      -0.01939250       0.00604757       0.00271979
Mo       3.07049700       5.97226300       1.16368600       0.01304809       0.00797109      -0.00216633
Mo       4.46285900       8.64444400       1.16342400       0.00397289       0.01000000       0.00148173
Mo       3.77005901       7.31555200       3.49691700      -0.02549421      -0.02831672      -0.00058115
Mo       2.38336200       9.98544000       3.49641200      -0.01938998       0.00602875       0.00273136
Mo       3.07049700       5.97226300       5.82984000       0.01304809       0.00797106      -0.00215564
Mo       4.46285900       8.64444400       5.82957800       0.00397289       0.00999997       0.00149242
Mo       3.77005901       7.31555200       8.16307100      -0.02549421      -0.02831672      -0.00059272
Mo       2.38336200       9.98544000       8.16256600      -0.01938998       0.00602877       0.00271979
Mo       5.85039400       0.62649500       1.16368600       0.01305262       0.00794957      -0.00216633
Mo       7.24275600       3.29867600       1.16342400       0.00397359       0.01000517       0.00148173
Mo       6.54995601       1.96978400       3.49691700      -0.02549105      -0.02832821      -0.00058115
Mo       5.16325900       4.63967200       3.49641200      -0.01939108       0.00604734       0.00273139
Mo       5.85039400       0.62649500       5.82984000       0.01305262       0.00794954      -0.00215561
Mo       7.24275600       3.29867600       5.82957800       0.00397359       0.01000514       0.00149242
Mo       6.54995601       1.96978400       8.16307100      -0.02549105      -0.02832821      -0.00059272
Mo       5.16325900       4.63967200       8.16256600      -0.01939108       0.00604736       0.00271979
Mo       5.85039400       5.97226300       1.16368600       0.01304976       0.00797086      -0.00216633
Mo       7.24275600       8.64444400       1.16342400       0.00397431       0.00999979       0.00148173
Mo       6.54995601       7.31555200       3.49691700      -0.02549254      -0.02831695      -0.00058115
Mo       5.16325900       9.98544000       3.49641200      -0.01938856       0.00602854       0.00273136
Mo       5.85039400       5.97226300       5.82984000       0.01304976       0.00797083      -0.00215564
Mo       7.24275600       8.64444400       5.82957800       0.00397431       0.00999979       0.00149242
Mo       6.54995601       7.31555200       8.16307100      -0.02549254      -0.02831692      -0.00059272
Mo       5.16325900       9.98544000       8.16256600      -0.01938859       0.00602857       0.00271979
64
Lattice="11.519588 0.0 0.0 0.0 10.691536 0.0 0.0 0.0 9.332308" Properties=species:S:1:pos:R:3:forces:R:3 energy=-290.99445899999955 stress="0.14229763757760086 -0.07283423492773375 -6.381195851925266e-05 -0.07283423492773375 0.08283747099782593 5.0498672209480524e-06 -6.381195851925266e-05 5.0498672209480524e-06 0.1417886109617293" pbc="T T T" 
Mo      -2.57596399       0.62115200       1.16835400       0.01850068       0.00468861       0.00177162
Mo      -1.13351300       3.29333000       1.16808800       0.01392669       0.00510261       0.00244021
Mo      -1.85123500       1.96443600       3.50158500      -0.01425967      -0.01945099      -0.00302372
Mo      -3.28781700       4.63432600       3.50108100      -0.00946372       0.00337015       0.00229052
Mo      -2.57596399       0.62115200       5.83450800       0.01850073       0.00468851       0.00183952
Mo      -1.13351300       3.29333000       5.83424200       0.01392674       0.00510248       0.00250809
Mo      -1.85123500       1.96443600       8.16773900      -0.01425970      -0.01945089      -0.00309509
Mo      -3.28781700       4.63432600       8.16723500      -0.00946372       0.00337023       0.00221915
Mo      -2.57596399       5.96692000       1.16835400       0.01848788       0.00478675       0.00177162
Mo      -1.13351300       8.63909800       1.16808800       0.01393240       0.00505906       0.00244021
Mo      -1.85123500       7.31020400       3.50158500      -0.01426466      -0.01941222      -0.00302372
Mo      -3.28781700       9.98009400       3.50108100      -0.00945063       0.00327013       0.00229052