192
Lattice="18.102544 0.0 0.0 0.0 14.300838 0.0 0.0 0.0 13.57791" Properties=species:S:1:pos:R:3:forces:R:3 energy=-776.7756449999943 stress="-0.010642181997193578 0.00010586358010460189 8.245055935293365e-05 0.00010586358010460189 -0.017341060405200302 6.941272034612232e-05 8.245055935293365e-05 6.941272034612232e-05 -0.00999203454643843" pbc="T T T" 
Mo      -2.25816800       1.08427800      -4.52141000      -0.00005908       0.03685402       0.00886743
Mo      -4.52115100       4.66047300      -4.52122500       0.00441561       0.06002359       0.00744738
Mo      -4.52114400       1.08360200      -2.25847600       0.00790581       0.04294357       0.00231762
Mo      -2.25848400       4.66084999      -2.25905100       0.00798544       0.06646006       0.01139282
Mo      -2.25785101       2.47348600      -2.25810800      -0.00095252      -0.05517241      -0.00994071
Mo      -4.52090899       6.05039201      -2.25853799      -0.00014385      -0.02191840       0.00114522
Mo      -4.52085400       2.47403401       0.00482100      -0.00503111      -0.05688566       0.00345893
Mo      -2.25780101       6.05051699       0.00552500      -0.00988134      -0.03633463      -0.01539600
Mo      -2.25816800       1.08427800       0.00456001      -0.00275185       0.04176115       0.00438643
Mo      -4.52115100       4.66047300       0.00474500       0.00294978       0.06662305      -0.00384683
Mo      -4.52114400       1.08360200       2.26749400       0.00236914       0.04149036       0.00514061
Mo      -2.25848400       4.66084999       2.26691900       0.00509739       0.06481620       0.02492415
Mo      -2.25785101       2.47348600       2.26786200      -0.00468486      -0.05527628       0.00090009
Mo      -4.52090899       6.05039201       2.26743200      -0.00543565      -0.02568525       0.00811564
Mo      -4.52085400       2.47403401       4.53079100       0.00231546      -0.05945800      -0.00682515
Mo      -2.25780101       6.05051699       4.53149500      -0.00229790      -0.02379168      -0.01967005
Mo      -2.25816800       1.08427800       4.53053000       0.00201531       0.03682141       0.00509143
Mo      -4.52115100       4.66047300       4.53071500       0.00614062       0.06457712      -0.00734798
Mo      -4.52114400       1.08360200       6.79346401       0.00083743       0.04583251       0.00068217
Mo      -2.25848400       4.66084999       6.79288900       0.00477909       0.06413458       0.01507757
Mo      -2.25785101       2.47348600       6.79383200      -0.00838195      -0.05514479       0.00197283
Mo      -4.52090899       6.05039201       6.79340200      -0.00928243      -0.03369698       0.00559233
Mo      -4.52085400       2.47403401       9.05676100      -0.00051121      -0.05966220       0.00505088
Mo      -2.25780101       6.05051699       9.05746501      -0.00823612      -0.02970241      -0.01204215
Mo      -2.25816800       8.23469700      -4.52141000      -0.00005908       0.03681946       0.00886740
Mo      -4.52115100      11.81089200      -4.52122500       0.00441561       0.06004347       0.00744738
Mo      -4.52114400       8.23402100      -2.25847600       0.00790578       0.04290899       0.00231759
Mo      -2.25848400      11.81126899      -2.25905100       0.00798541       0.06647986       0.01139279
Mo      -2.25785101       9.62390500      -2.25810800      -0.00095252      -0.05519233      -0.00994068
Mo      -4.52090899      13.20081101      -2.25853799      -0.00014383      -0.02188389       0.00114520
Mo      -4.52085400       9.62445301       0.00482100      -0.00503111      -0.05690564       0.00345891
Mo      -2.25780101      13.20093599       0.00552500      -0.00988132      -0.03630010      -0.01539597
Mo      -2.25816800       8.23469700       0.00456001      -0.00275185       0.04172659       0.00438638
Mo      -4.52115100      11.81089200       0.00474500       0.00294978       0.06664292      -0.00384683
Mo      -4.52114400       8.23402100       2.26749400       0.00236912       0.04145578       0.00514064
Mo      -2.25848400      11.81126899       2.26691900       0.00509739       0.06483600       0.02492412
Mo      -2.25785101       9.62390500       2.26786200      -0.00468483      -0.05529618       0.00090012
Mo      -4.52090899      13.20081101       2.26743200      -0.00543565      -0.02565077       0.00811564
Mo      -4.52085400       9.62445301       4.53079100       0.00231546      -0.05947798      -0.00682515
Mo      -2.25780101      13.20093599       4.53149500      -0.00229787      -0.02375715      -0.01966999
Mo      -2.25816800       8.23469700       4.53053000       0.00201531       0.03678688       0.00509138
Mo      -4.52115100      11.81089200       4.53071500       0.00614059       0.06459699      -0.00734801
Mo      -4.52114400       8.23402100       6.79346401       0.00083743       0.04579793       0.00068217
Mo      -2.25848400      11.81126899       6.79288900       0.00477906       0.06415438       0.01507754
Mo      -2.25785101       9.62390500       6.79383200      -0.00838193      -0.05516472       0.00197283
Mo      -4.52090899      13.20081101       6.79340200      -0.00928243      -0.03366248       0.00559228
Mo      -4.52085400       9.62445301       9.05676100      -0.00051121      -0.05968220       0.00505088
Mo      -2.25780101      13.20093599       9.05746501      -0.00823609      -0.02966788      -0.01204210
Mo       2.26746800       1.08427800      -4.52141000      -0.00006209       0.03685412       0.00886740
Mo       0.00448500       4.66047300      -4.52122500       0.00441271       0.06002349       0.00744738
Mo       0.00449200       1.08360200      -2.25847600       0.00790290       0.04294347       0.00231762
Mo       2.26715200       4.66084999      -2.25905100       0.00798243       0.06646014       0.01139282
Mo       2.26778499       2.47348600      -2.25810800      -0.00095552      -0.05517248      -0.00994071
Mo       0.00472701       6.05039201      -2.25853799      -0.00014673      -0.02191830       0.00114522
Mo       0.00478200       2.47403401       0.00482100      -0.00503404      -0.05688556       0.00345893
Mo       2.26783499       6.05051699       0.00552500      -0.00988435      -0.03633473      -0.01539600
Mo       2.26746800       1.08427800       0.00456001      -0.00275486       0.04176125       0.00438643
Mo       0.00448500       4.66047300       0.00474500       0.00294687       0.06662294      -0.00384683
Mo       0.00449200       1.08360200       2.26749400       0.00236624       0.04149025       0.00514061
Mo       2.26715200       4.66084999       2.26691900       0.00509438       0.06481628       0.02492415
Mo       2.26778499       2.47348600       2.26786200      -0.00468787      -0.05527636       0.00090009
Mo       0.00472701       6.05039201       2.26743200      -0.00543855      -0.02568514       0.00811564
Mo       0.00478200       2.47403401       4.53079100       0.00231255      -0.05945790      -0.00682515
Mo       2.26783499       6.05051699       4.53149500      -0.00230091      -0.02379178      -0.01967005
Mo       2.26746800       1.08427800       4.53053000       0.00201230       0.03682152       0.00509143
Mo       0.00448500       4.66047300       4.53071500       0.00613771       0.06457704      -0.00734798
Mo       0.00449200       1.08360200       6.79346401       0.00083453       0.04583241       0.00068217
Mo       2.26715200       4.66084999       6.79288900       0.00477606       0.06413466       0.01507757
Mo       2.26778499       2.47348600       6.79383200      -0.00838496      -0.05514490       0.00197283
Mo       0.00472701       6.05039201       6.79340200      -0.00928533      -0.03369688       0.00559233
Mo       0.00478200       2.47403401       9.05676100      -0.00051412      -0.05966212       0.00505088
Mo       2.26783499       6.05051699       9.05746501      -0.00823913      -0.02970252      -0.01204215
Mo       2.26746800       8.23469700      -4.52141000      -0.00006209       0.03681956       0.00886740
Mo       0.00448500      11.81089200      -4.52122500       0.00441271       0.06004336       0.00744738
Mo       0.00449200       8.23402100      -2.25847600       0.00790290       0.04290889       0.00231759
Mo       2.26715200      11.81126899      -2.25905100       0.00798240       0.06647994       0.01139279
Mo       2.26778499       9.62390500      -2.25810800      -0.00095552      -0.05519241      -0.00994068
Mo       0.00472701      13.20081101      -2.25853799      -0.00014673      -0.02188379       0.00114520
Mo       0.00478200       9.62445301       0.00482100      -0.00503401      -0.05690556       0.00345891
Mo       2.26783499      13.20093599       0.00552500      -0.00988432      -0.03630020      -0.01539597
Mo       2.26746800       8.23469700       0.00456001      -0.00275486       0.04172669       0.00438638
Mo       0.00448500      11.81089200       0.00474500       0.00294687       0.06664282      -0.00384683
Mo       0.00449200       8.23402100       2.26749400       0.00236624       0.04145567       0.00514064
Mo       2.26715200      11.81126899       2.26691900       0.00509436       0.06483610       0.02492412
Mo       2.26778499       9.62390500       2.26786200      -0.00468787      -0.05529628       0.00090012
Mo       0.00472701      13.20081101       2.26743200      -0.00543855      -0.02565066       0.00811564
Mo       0.00478200       9.62445301       4.53079100       0.00231255      -0.05947790      -0.00682515
Mo       2.26783499      13.20093599       4.53149500      -0.00230088      -0.02375725      -0.01966999
Mo       2.26746800       8.23469700       4.53053000       0.00201230       0.03678699       0.00509138
Mo       0.00448500      11.81089200       4.53071500       0.00613771       0.06459691      -0.00734801
Mo       0.00449200       8.23402100       6.79346401       0.00083453       0.04579783       0.00068217
Mo       2.26715200      11.81126899       6.79288900       0.00477606       0.06415445       0.01507754
Mo       2.26778499       9.62390500       6.79383200      -0.00838496      -0.05516480       0.00197283
Mo       0.00472701      13.20081101       6.79340200      -0.00928533      -0.03366238       0.00559230
Mo       0.00478200       9.62445301       9.05676100      -0.00051412      -0.05968210       0.00505088
Mo       2.26783499      13.20093599       9.05746501      -0.00823910      -0.02966799      -0.01204210
Mo       6.79310400       1.08427800      -4.52141000      -0.00006068       0.03685438       0.00886740
Mo       4.53012100       4.66047300      -4.52122500       0.00441147       0.06002372       0.00744738
Mo       4.53012800       1.08360200      -2.25847600       0.00790167       0.04294373       0.00231762
Mo       6.79278800       4.66084999      -2.25905100       0.00798382       0.06646037       0.01139282
Mo       6.79342099       2.47348600      -2.25810800      -0.00095414      -0.05517272      -0.00994071
Mo       4.53036301       6.05039201      -2.25853799      -0.00014797      -0.02191855       0.00114522
Mo       4.53041800       2.47403401       0.00482100      -0.00503525      -0.05688579       0.00345893
Mo       6.79347099       6.05051699       0.00552500      -0.00988294      -0.03633499      -0.01539600
Mo       6.79310400       1.08427800       0.00456001      -0.00275345       0.04176151       0.00438641
Mo       4.53012100       4.66047300       0.00474500       0.00294564       0.06662318      -0.00384683
Mo       4.53012800       1.08360200       2.26749400       0.00236500       0.04149051       0.00514061
Mo       6.79278800       4.66084999       2.26691900       0.00509577       0.06481651       0.02492412
Mo       6.79342099       2.47348600       2.26786200      -0.00468648      -0.05527659       0.00090012
Mo       4.53036301       6.05039201       2.26743200      -0.00543979      -0.02568543       0.00811564
Mo       4.53041800       2.47403401       4.53079100       0.00231132      -0.05945813      -0.00682515
Mo       6.79347099       6.05051699       4.53149500      -0.00229952      -0.02379204      -0.01967002
Mo       6.79310400       1.08427800       4.53053000       0.00201369       0.03682177       0.00509140
Mo       4.53012100       4.66047300       4.53071500       0.00613648       0.06457727      -0.00734798
Mo       4.53012800       1.08360200       6.79346401       0.00083329       0.04583267       0.00068217
Mo       6.79278800       4.66084999       6.79288900       0.00477747       0.06413489       0.01507757
Mo       6.79342099       2.47348600       6.79383200      -0.00838357      -0.05514510       0.00197283
Mo       4.53036301       6.05039201       6.79340200      -0.00928657      -0.03369716       0.00559233
Mo       4.53041800       2.47403401       9.05676100      -0.00051535      -0.05966235       0.00505088
Mo       6.79347099       6.05051699       9.05746501      -0.00823771      -0.02970277      -0.01204215
Mo       6.79310400       8.23469700      -4.52141000      -0.00006070       0.03681982       0.00886740
Mo       4.53012100      11.81089200      -4.52122500       0.00441147       0.06004362       0.00744738
Mo       4.53012800       8.23402100      -2.25847600       0.00790167       0.04290914       0.00231759
Mo       6.79278800      11.81126899      -2.25905100       0.00798379       0.06648017       0.01139279
Mo       6.79342099       9.62390500      -2.25810800      -0.00095414      -0.05519264      -0.00994068
Mo       4.53036301      13.20081101      -2.25853799      -0.00014797      -0.02188407       0.00114520
Mo       4.53041800       9.62445301       0.00482100      -0.00503525      -0.05690579       0.00345891
Mo       6.79347099      13.20093599       0.00552500      -0.00988291      -0.03630046      -0.01539595
Mo       6.79310400       8.23469700       0.00456001      -0.00275345       0.04172695       0.00438638
Mo       4.53012100      11.81089200       0.00474500       0.00294564       0.06664305      -0.00384683
Mo       4.53012800       8.23402100       2.26749400       0.00236500       0.04145593       0.00514064
Mo       6.79278800      11.81126899       2.26691900       0.00509577       0.06483631       0.02492410
Mo       6.79342099       9.62390500       2.26786200      -0.00468645      -0.05529649       0.00090012
Mo       4.53036301      13.20081101       2.26743200      -0.00543979      -0.02565092       0.00811564
Mo       4.53041800       9.62445301       4.53079100       0.00231132      -0.05947813      -0.00682515
Mo       6.79347099      13.20093599       4.53149500      -0.00229949      -0.02375751      -0.01966997
Mo       6.79310400       8.23469700       4.53053000       0.00201369       0.03678722       0.00509138
Mo       4.53012100      11.81089200       4.53071500       0.00613648       0.06459715      -0.00734798
Mo       4.53012800       8.23402100       6.79346401       0.00083329       0.04579809       0.00068217
Mo       6.79278800      11.81126899       6.79288900       0.00477744       0.06415469       0.01507752
Mo       6.79342099       9.62390500       6.79383200      -0.00838355      -0.05516503       0.00197283
Mo       4.53036301      13.20081101       6.79340200      -0.00928657      -0.03366266       0.00559228
Mo       4.53041800       9.62445301       9.05676100      -0.00051535      -0.05968233       0.00505088
Mo       6.79347099      13.20093599       9.05746501      -0.00823771      -0.02966822      -0.01204207
Mo      11.31874000       1.08427800      -4.52141000      -0.00005785       0.03685425       0.00886740
Mo       9.05575700       4.66047300      -4.52122500       0.00441456       0.06002382       0.00744738
Mo       9.05576400       1.08360200      -2.25847600       0.00790475       0.04294383       0.00231759
Mo      11.31842400       4.66084999      -2.25905100       0.00798664       0.06646027       0.01139282
Mo      11.31905699       2.47348600      -2.25810800      -0.00095131      -0.05517261      -0.00994071
Mo       9.05599901       6.05039201      -2.25853799      -0.00014488      -0.02191866       0.00114522
Mo       9.05605400       2.47403401       0.00482100      -0.00503216      -0.05688589       0.00345893
Mo      11.31910699       6.05051699       0.00552500      -0.00988011      -0.03633488      -0.01539600
Mo      11.31874000       1.08427800       0.00456001      -0.00275062       0.04176140       0.00438643
Mo       9.05575700       4.66047300       0.00474500       0.00294872       0.06662325      -0.00384683
Mo       9.05576400       1.08360200       2.26749400       0.00236809       0.04149061       0.00514061
Mo      11.31842400       4.66084999       2.26691900       0.00509860       0.06481641       0.02492412
Mo      11.31905699       2.47348600       2.26786200      -0.00468362      -0.05527649       0.00090012
Mo       9.05599901       6.05039201       2.26743200      -0.00543670      -0.02568553       0.00811564
Mo       9.05605400       2.47403401       4.53079100       0.00231440      -0.05945820      -0.00682515
Mo      11.31910699       6.05051699       4.53149500      -0.00229669      -0.02379191      -0.01967005
Mo      11.31874000       1.08427800       4.53053000       0.00201652       0.03682167       0.00509143
Mo       9.05575700       4.66047300       4.53071500       0.00613956       0.06457735      -0.00734798
Mo       9.05576400       1.08360200       6.79346401       0.00083638       0.04583275       0.00068217
Mo      11.31842400       4.66084999       6.79288900       0.00478030       0.06413478       0.01507757
Mo      11.31905699       2.47348600       6.79383200      -0.00838072      -0.05514500       0.00197283
Mo       9.05599901       6.05039201       6.79340200      -0.00928348      -0.03369724       0.00559233
Mo       9.05605400       2.47403401       9.05676100      -0.00051227      -0.05966243       0.00505088
Mo      11.31910699       6.05051699       9.05746501      -0.00823488      -0.02970265      -0.01204215
Mo      11.31874000       8.23469700      -4.52141000      -0.00005785       0.03681969       0.00886740
Mo       9.05575700      11.81089200      -4.52122500       0.00441456       0.06004370       0.00744738
Mo       9.05576400       8.23402100      -2.25847600       0.00790473       0.04290925       0.00231759
Mo      11.31842400      11.81126899      -2.25905100       0.00798664       0.06648007       0.01139279
Mo      11.31905699       9.62390500      -2.25810800      -0.00095128      -0.05519254      -0.00994068
Mo       9.05599901      13.20081101      -2.25853799      -0.00014488      -0.02188415       0.00114520
Mo       9.05605400       9.62445301       0.00482100      -0.00503216      -0.05690587       0.00345891
Mo      11.31910699      13.20093599       0.00552500      -0.00988008      -0.03630033      -0.01539595
Mo      11.31874000       8.23469700       0.00456001      -0.00275062       0.04172682       0.00438638
Mo       9.05575700      11.81089200       0.00474500       0.00294872       0.06664313      -0.00384683
Mo       9.05576400       8.23402100       2.26749400       0.00236806       0.04145603       0.00514064
Mo      11.31842400      11.81126899       2.26691900       0.00509860       0.06483621       0.02492410
Mo      11.31905699       9.62390500       2.26786200      -0.00468362      -0.05529641       0.00090012
Mo       9.05599901      13.20081101       2.26743200      -0.00543670      -0.02565102       0.00811564
Mo       9.05605400       9.62445301       4.53079100       0.00231440      -0.05947821      -0.00682515
Mo      11.31910699      13.20093599       4.53149500      -0.00229666      -0.02375738      -0.01966999
Mo      11.31874000       8.23469700       4.53053000       0.00201652       0.03678712       0.00509138
Mo       9.05575700      11.81089200       4.53071500       0.00613954       0.06459722      -0.00734798
Mo       9.05576400       8.23402100       6.79346401       0.00083638       0.04579816       0.00068217
Mo      11.31842400      11.81126899       6.79288900       0.00478027       0.06415458       0.01507752
Mo      11.31905699       9.62390500       6.79383200      -0.00838072      -0.05516493       0.00197283
Mo       9.05599901      13.20081101       6.79340200      -0.00928348      -0.03366274       0.00559228
Mo       9.05605400       9.62445301       9.05676100      -0.00051227      -0.05968241       0.00505088
Mo      11.31910699      13.20093599       9.05746501      -0.00823486      -0.02966812      -0.01204207
192
Lattice="18.102544 0.0 0.0 0.0 14.500838 0.0 0.0 0.0 13.57791" Properties=species:S:1:pos:R:3:forces:R:3 energy=-777.1517259999964 stress="0.001452066365441699 -5.068230374478772e-05 0.00025781867557131145 -5.068230374478772e-05 -0.0010637774840346207 2.8371072204962688e-05 0.00025781867557131145 2.8371072204962688e-05 0.0017686471323113148" pbc="T T T" 
Mo      -2.25544301       1.11230100      -4.51855700      -0.00479788       0.02022366       0.00212921
Mo      -4.51827500       4.73819100      -4.51864200      -0.00348279       0.00709781       0.00434097
Mo      -4.51826700       1.11234400      -2.25567800       0.00483038       0.01743555      -0.00173074
Mo      -2.25546400       4.73766299      -2.25567999       0.00540860       0.00793039      -0.00245044
Mo      -2.25588500       2.48686100      -2.25616000       0.01450370       0.00923731      -0.00234130
Mo      -4.51858901       6.11073400      -2.25595700       0.01175256       0.03767978      -0.00387794
Mo      -4.51868299       2.48689499       0.00696300      -0.00536075       0.01572312       0.00353650
Mo      -2.25575100       6.11082099       0.00692900      -0.00406728       0.04276547       0.00309381
Mo      -2.25544301       1.11230100       0.00741300      -0.00637816       0.02004473      -0.00745630
Mo      -4.51827500       4.73819100       0.00732800      -0.00515858       0.00758907      -0.00553631
Mo      -4.51826700       1.11234400       2.27029200      -0.00411796       0.02028868       0.00481843
Mo      -2.25546400       4.73766299       2.27029000      -0.00380546       0.01086332       0.00328258
Mo      -2.25588500       2.48686100       2.26981000      -0.00088359       0.00742100       0.00985229
Mo      -4.51858901       6.11073400       2.27001300      -0.00102384       0.03368115       0.00576698
Mo      -4.51868299       2.48689499       4.53293301       0.01440967       0.00864811      -0.00567399
Mo      -2.25575100       6.11082099       4.53289901       0.01171937       0.03730913      -0.00245085
Mo      -2.25544301       1.11230100       4.53338300       0.00511446       0.01764715      -0.00360859
Mo      -4.51827500       4.73819100       4.53329799       0.00391800       0.00350297      -0.00168472
Mo      -4.51826700       1.11234400       6.79626201      -0.00697165       0.02002110      -0.00596375
Mo      -2.25546400       4.73766299       6.79626000      -0.00613920       0.01109341      -0.00653788
Mo      -2.25588500       2.48686100       6.79578000      -0.00486820       0.01597730       0.00588564
Mo      -4.51858901       6.11073400       6.79598299      -0.00413223       0.04322477       0.00214571
Mo      -4.51868299       2.48689499       9.05890300      -0.00100633       0.00741930       0.00791802
Mo      -2.25575100       6.11082099       9.05886900      -0.00123516       0.03316145       0.00756172
Mo      -2.25544301       8.36272000      -4.51855700      -0.00479786       0.02010580       0.00212931
Mo      -4.51827500      11.98861000      -4.51864200      -0.00348277       0.00715356       0.00434103
Mo      -4.51826700       8.36276300      -2.25567800       0.00483038       0.01731769      -0.00173076
Mo      -2.25546400      11.98808199      -2.25567999       0.00540857       0.00798621      -0.00245044
Mo      -2.25588500       9.73728000      -2.25616000       0.01450362       0.00918149      -0.00234130
Mo      -4.51858901      13.36115300      -2.25595700       0.01175249       0.03779740      -0.00387794
Mo      -4.51868299       9.73731399       0.00696300      -0.00536070       0.01566735       0.00353642
Mo      -2.25575100      13.36123999       0.00692900      -0.00406728       0.04288307       0.00309371
Mo      -2.25544301       8.36272000       0.00741300      -0.00637808       0.01992687      -0.00745630
Mo      -4.51827500      11.98861000       0.00732800      -0.00515856       0.00764482      -0.00553631
Mo      -4.51826700       8.36276300       2.27029200      -0.00411793       0.02017079       0.00481850
Mo      -2.25546400      11.98808199       2.27029000      -0.00380544       0.01091914       0.00328263
Mo      -2.25588500       9.73728000       2.26981000      -0.00088359       0.00736518       0.00985224
Mo      -4.51858901      13.36115300       2.27001300      -0.00102389       0.03379877       0.00576701
Mo      -4.51868299       9.73731399       4.53293301       0.01440957       0.00859240      -0.00567394
Mo      -2.25575100      13.36123999       4.53289901       0.01171929       0.03742675      -0.00245090
Mo      -2.25544301       8.36272000       4.53338300       0.00511446       0.01752929      -0.00360859
Mo      -4.51827500      11.98861000       4.53329799       0.00391798       0.00355874      -0.00168469
Mo      -4.51826700       8.36276300       6.79626201      -0.00697160       0.01990325      -0.00596378
Mo      -2.25546400      11.98808199       6.79626000      -0.00613920       0.01114920      -0.00653788
Mo      -2.25588500       9.73728000       6.79578000      -0.00486815       0.01592143       0.00588556
Mo      -4.51858901      13.36115300       6.79598299      -0.00413223       0.04334237       0.00214564
Mo      -4.51868299       9.73731399       9.05890300      -0.00100630       0.00736359       0.00791800
Mo      -2.25575100      13.36123999       9.05886900      -0.00123518       0.03327908       0.00756172
Mo       2.27019299       1.11230100      -4.51855700      -0.00479565       0.02022373       0.00212921
Mo       0.00736100       4.73819100      -4.51864200      -0.00348040       0.00709776       0.00434097
Mo       0.00736900       1.11234400      -2.25567800       0.00483277       0.01743550      -0.00173074
Mo       2.27017200       4.73766299      -2.25567999       0.00541084       0.00793044      -0.00245044
Mo       2.26975100       2.48686100      -2.25616000       0.01450593       0.00923723      -0.00234130
Mo       0.00704699       6.11073400      -2.25595700       0.01175498       0.03767983      -0.00387794
Mo       0.00695301       2.48689499       0.00696300      -0.00535833       0.01572317       0.00353650
Mo       2.26988500       6.11082099       0.00692900      -0.00406504       0.04276539       0.00309381
Mo       2.27019299       1.11230100       0.00741300      -0.00637592       0.02004478      -0.00745628
Mo       0.00736100       4.73819100       0.00732800      -0.00515617       0.00758902      -0.00553631
Mo       0.00736900       1.11234400       2.27029200      -0.00411554       0.02028863       0.00481843
Mo       2.27017200       4.73766299       2.27029000      -0.00380323       0.01086337       0.00328258
Mo       2.26975100       2.48686100       2.26981000      -0.00088135       0.00742095       0.00985229
Mo       0.00704699       6.11073400       2.27001300      -0.00102145       0.03368117       0.00576698
Mo       0.00695301       2.48689499       4.53293301       0.01441206       0.00864816      -0.00567399
Mo       2.26988500       6.11082099       4.53289901       0.01172161       0.03730908      -0.00245085
Mo       2.27019299       1.11230100       4.53338300       0.00511670       0.01764723      -0.00360859
Mo       0.00736100       4.73819100       4.53329799       0.00392039       0.00350292      -0.00168472
Mo       0.00736900       1.11234400       6.79626201      -0.00696926       0.02002105      -0.00596375
Mo       2.27017200       4.73766299       6.79626000      -0.00613697       0.01109346      -0.00653788
Mo       2.26975100       2.48686100       6.79578000      -0.00486597       0.01597725       0.00588564
Mo       0.00704699       6.11073400       6.79598299      -0.00412983       0.04322480       0.00214571
Mo       0.00695301       2.48689499       9.05890300      -0.00100391       0.00741936       0.00791802
Mo       2.26988500       6.11082099       9.05886900      -0.00123292       0.03316140       0.00756172
Mo       2.27019299       8.36272000      -4.51855700      -0.00479562       0.02010587       0.00212931
Mo       0.00736100      11.98861000      -4.51864200      -0.00348037       0.00715353       0.00434103
Mo       0.00736900       8.36276300      -2.25567800       0.00483277       0.01731764      -0.00173076
Mo       2.27017200      11.98808199      -2.25567999       0.00541081       0.00798628      -0.00245044
Mo       2.26975100       9.73728000      -2.25616000       0.01450586       0.00918144      -0.00234127
Mo       0.00704699      13.36115300      -2.25595700       0.01175488       0.03779743      -0.00387794
Mo       0.00695301       9.73731399       0.00696300      -0.00535831       0.01566740       0.00353642
Mo       2.26988500      13.36123999       0.00692900      -0.00406504       0.04288302       0.00309371
Mo       2.27019299       8.36272000       0.00741300      -0.00637585       0.01992695      -0.00745628
Mo       0.00736100      11.98861000       0.00732800      -0.00515617       0.00764476      -0.00553631
Mo       0.00736900       8.36276300       2.27029200      -0.00411551       0.02017074       0.00481850
Mo       2.27017200      11.98808199       2.27029000      -0.00380320       0.01091919       0.00328263
Mo       2.26975100       9.73728000       2.26981000      -0.00088135       0.00736511       0.00985224
Mo       0.00704699      13.36115300       2.27001300      -0.00102147       0.03379880       0.00576701