64
Lattice="11.262106 0.0 0.0 0.0 11.262106 0.0 0.0 0.0 11.262106" Properties=species:S:1:pos:R:3:forces:R:3 energy=-178.72597200000018 stress="-0.0028899931026647434 -0.0003763528316121103 0.0003763528316121103 -0.0003763528316121103 -0.0028899931026647434 -0.0003763528316121103 0.0003763528316121103 -0.0003763528316121103 -0.0028899931026647434" pbc="T T T" 
Mo       2.87183700      -0.05631100       0.05631100      -0.00481455       0.00489302      -0.00491986
Mo       0.05631100       2.75921600       0.05631100      -0.00508901       0.00489590      -0.00491991
Mo       4.27960000       1.35145300       1.46407401       0.00627493      -0.00614895       0.00607444
Mo       1.46407401       4.16697899       1.46407401       0.00600157      -0.00601271       0.00607446
Mo       0.05631100      -0.05631100       2.87183700      -0.00508901       0.00489307      -0.00488535
Mo       2.87183700       2.75921600       2.87183700      -0.00481462       0.00489592      -0.00488535
Mo       1.46407401       1.35145300       4.27960000       0.00600150      -0.00614892       0.00610131
Mo       4.27960000       4.16697899       4.27960000       0.00627491      -0.00601263       0.00610131
Mo       2.87183700      -0.05631100       5.68736400      -0.00481455       0.00489302      -0.00496616
Mo       0.05631100       2.75921600       5.68736400      -0.00508904       0.00489587      -0.00496621
Mo       4.27960000       1.35145300       7.09512701       0.00627493      -0.00614895       0.00605665
Mo       1.46407401       4.16697899       7.09512701       0.00600157      -0.00601271       0.00605670
Mo       0.05631100      -0.05631100       8.50289000      -0.00508901       0.00489307      -0.00486417
Mo       2.87183700       2.75921600       8.50289000      -0.00481460       0.00489590      -0.00486417
Mo       1.46407401       1.35145300       9.91065300       0.00600152      -0.00614892       0.00614897
Mo       4.27960000       4.16697899       9.91065300       0.00627493      -0.00601265       0.00614900
Mo       2.87183700       5.57474200       0.05631100      -0.00481455       0.00499200      -0.00491988
Mo       0.05631100       8.39026900       0.05631100      -0.00508906       0.00485471      -0.00491993
Mo       4.27960000       6.98250600       1.46407401       0.00627493      -0.00610814       0.00607441
Mo       1.46407401       9.79803199       1.46407401       0.00600157      -0.00611180       0.00607446
Mo       0.05631100       5.57474200       2.87183700      -0.00508906       0.00499205      -0.00488538
Mo       2.87183700       8.39026900       2.87183700      -0.00481462       0.00485473      -0.00488538
Mo       1.46407401       6.98250600       4.27960000       0.00600147      -0.00610809       0.00610131
Mo       4.27960000       9.79803199       4.27960000       0.00627493      -0.00611172       0.00610133
Mo       2.87183700       5.57474200       5.68736400      -0.00481457       0.00499200      -0.00496619
Mo       0.05631100       8.39026900       5.68736400      -0.00508906       0.00485471      -0.00496624
Mo       4.27960000       6.98250600       7.09512701       0.00627493      -0.00610812       0.00605665
Mo       1.46407401       9.79803199       7.09512701       0.00600157      -0.00611180       0.00605670
Mo       0.05631100       5.57474200       8.50289000      -0.00508904       0.00499205      -0.00486422
Mo       2.87183700       8.39026900       8.50289000      -0.00481462       0.00485471      -0.00486419
Mo       1.46407401       6.98250600       9.91065300       0.00600150      -0.00610812       0.00614897
Mo       4.27960000       9.79803199       9.91065300       0.00627493      -0.00611172       0.00614903
Mo       8.50289000      -0.05631100       0.05631100      -0.00493598       0.00489312      -0.00491996
Mo       5.68736400       2.75921600       0.05631100      -0.00479614       0.00489587      -0.00491991
Mo       9.91065300       1.35145300       1.46407401       0.00598213      -0.00614890       0.00607439
Mo       7.09512701       4.16697899       1.46407401       0.00612285      -0.00601271       0.00607446
Mo       5.68736400      -0.05631100       2.87183700      -0.00479614       0.00489307      -0.00488533
Mo       8.50289000       2.75921600       2.87183700      -0.00493606       0.00489600      -0.00488543
Mo       7.09512701       1.35145300       4.27960000       0.00612277      -0.00614892       0.00610131
Mo       9.91065300       4.16697899       4.27960000       0.00598211      -0.00601258       0.00610125
Mo       8.50289000      -0.05631100       5.68736400      -0.00493598       0.00489312      -0.00496627
Mo       5.68736400       2.75921600       5.68736400      -0.00479614       0.00489587      -0.00496621
Mo       9.91065300       1.35145300       7.09512701       0.00598213      -0.00614890       0.00605662
Mo       7.09512701       4.16697899       7.09512701       0.00612285      -0.00601271       0.00605667
Mo       5.68736400      -0.05631100       8.50289000      -0.00479611       0.00489304      -0.00486417
Mo       8.50289000       2.75921600       8.50289000      -0.00493606       0.00489597      -0.00486427
Mo       7.09512701       1.35145300       9.91065300       0.00612277      -0.00614892       0.00614897
Mo       9.91065300       4.16697899       9.91065300       0.00598213      -0.00601260       0.00614895
Mo       8.50289000       5.57474200       0.05631100      -0.00493600       0.00499211      -0.00491996
Mo       5.68736400       8.39026900       0.05631100      -0.00479616       0.00485468      -0.00491991
Mo       9.91065300       6.98250600       1.46407401       0.00598213      -0.00610809       0.00607436
Mo       7.09512701       9.79803199       1.46407401       0.00612285      -0.00611177       0.00607446
Mo       5.68736400       5.57474200       2.87183700      -0.00479616       0.00499205      -0.00488538
Mo       8.50289000       8.39026900       2.87183700      -0.00493608       0.00485481      -0.00488546
Mo       7.09512701       6.98250600       4.27960000       0.00612275      -0.00610809       0.00610128
Mo       9.91065300       9.79803199       4.27960000       0.00598213      -0.00611167       0.00610128
Mo       8.50289000       5.57474200       5.68736400      -0.00493600       0.00499211      -0.00496627
Mo       5.68736400       8.39026900       5.68736400      -0.00479616       0.00485468      -0.00496621
Mo       9.91065300       6.98250600       7.09512701       0.00598213      -0.00610809       0.00605659
Mo       7.09512701       9.79803199       7.09512701       0.00612285      -0.00611177       0.00605667
Mo       5.68736400       5.57474200       8.50289000      -0.00479614       0.00499203      -0.00486419
Mo       8.50289000       8.39026900       8.50289000      -0.00493606       0.00485481      -0.00486430
Mo       7.09512701       6.98250600       9.91065300       0.00612275      -0.00610809       0.00614897
Mo       9.91065300       9.79803199       9.91065300       0.00598213      -0.00611167       0.00614897
64
Lattice="11.462106 0.0 0.0 0.0 11.262106 0.0 0.0 0.0 11.262106" Properties=species:S:1:pos:R:3:forces:R:3 energy=-178.7013709999992 stress="0.004829693010114717 7.8227034040868e-05 -7.8227034040868e-05 7.8227034040868e-05 0.01113587537986699 0.0001258794174530869 -7.8227034040868e-05 0.0001258794174530869 0.01113587537986699" pbc="T T T" 
Mo       2.95149200      -0.08446600       0.08446600      -0.00347639      -0.00284349       0.00284408
Mo       0.08596600       2.73106100       0.08446600      -0.00350979      -0.00286074       0.00284410
Mo       4.38425600       1.32329700       1.49222900      -0.00702677      -0.00157475       0.00158940
Mo       1.51872900       4.13882400       1.49222900      -0.00695599      -0.00158992       0.00158938
Mo       0.08596600      -0.08446600       2.89999200      -0.00350979      -0.00284349       0.00286030
Mo       2.95149200       2.73106100       2.89999200      -0.00347636      -0.00286074       0.00286030
Mo       1.51872900       1.32329700       4.30775600      -0.00695599      -0.00157475       0.00157508
Mo       4.38425600       4.13882400       4.30775600      -0.00702677      -0.00158992       0.00157508
Mo       2.95149200      -0.08446600       5.71551900      -0.00347639      -0.00284349       0.00284446
Mo       0.08596600       2.73106100       5.71551900      -0.00350979      -0.00286074       0.00284449
Mo       4.38425600       1.32329700       7.12328200      -0.00702677      -0.00157475       0.00158956
Mo       1.51872900       4.13882400       7.12328200      -0.00695599      -0.00158992       0.00158953
Mo       0.08596600      -0.08446600       8.53104500      -0.00350979      -0.00284349       0.00286012
Mo       2.95149200       2.73106100       8.53104500      -0.00347636      -0.00286074       0.00286012
Mo       1.51872900       1.32329700       9.93880900      -0.00695599      -0.00157475       0.00157467
Mo       4.38425600       4.13882400       9.93880900      -0.00702677      -0.00158992       0.00157470
Mo       2.95149200       5.54658700       0.08446600      -0.00347639      -0.00284446       0.00284408
Mo       0.08596600       8.36211400       0.08446600      -0.00350981      -0.00286033       0.00284410
Mo       4.38425600       6.95435000       1.49222900      -0.00702677      -0.00157516       0.00158940
Mo       1.51872900       9.76987700       1.49222900      -0.00695599      -0.00158894       0.00158938
Mo       0.08596600       5.54658700       2.89999200      -0.00350979      -0.00284446       0.00286030
Mo       2.95149200       8.36211400       2.89999200      -0.00347636      -0.00286033       0.00286030
Mo       1.51872900       6.95435000       4.30775600      -0.00695602      -0.00157516       0.00157508
Mo       4.38425600       9.76987700       4.30775600      -0.00702675      -0.00158892       0.00157508
Mo       2.95149200       5.54658700       5.71551900      -0.00347639      -0.00284446       0.00284446
Mo       0.08596600       8.36211400       5.71551900      -0.00350979      -0.00286033       0.00284449
Mo       4.38425600       6.95435000       7.12328200      -0.00702677      -0.00157516       0.00158956
Mo       1.51872900       9.76987700       7.12328200      -0.00695599      -0.00158894       0.00158953
Mo       0.08596600       5.54658700       8.53104500      -0.00350979      -0.00284446       0.00286012
Mo       2.95149200       8.36211400       8.53104500      -0.00347636      -0.00286033       0.00286012
Mo       1.51872900       6.95435000       9.93880900      -0.00695602      -0.00157516       0.00157467
Mo       4.38425600       9.76987700       9.93880900      -0.00702675      -0.00158892       0.00157470
Mo       8.68254500      -0.08446600       0.08446600      -0.00346839      -0.00284349       0.00284408
Mo       5.81701900       2.73106100       0.08446600      -0.00352907      -0.00286074       0.00284410
Mo      10.11530900       1.32329700       1.49222900      -0.00700749      -0.00157475       0.00158940
Mo       7.24978200       4.13882400       1.49222900      -0.00696396      -0.00158992       0.00158938
Mo       5.81701900      -0.08446600       2.89999200      -0.00352905      -0.00284349       0.00286030
Mo       8.68254500       2.73106100       2.89999200      -0.00346839      -0.00286074       0.00286030
Mo       7.24978200       1.32329700       4.30775600      -0.00696399      -0.00157475       0.00157508
Mo      10.11530900       4.13882400       4.30775600      -0.00700749      -0.00158992       0.00157508
Mo       8.68254500      -0.08446600       5.71551900      -0.00346839      -0.00284349       0.00284446
Mo       5.81701900       2.73106100       5.71551900      -0.00352907      -0.00286074       0.00284449
Mo      10.11530900       1.32329700       7.12328200      -0.00700749      -0.00157475       0.00158956
Mo       7.24978200       4.13882400       7.12328200      -0.00696396      -0.00158992       0.00158953
Mo       5.81701900      -0.08446600       8.53104500      -0.00352905      -0.00284349       0.00286015
Mo       8.68254500       2.73106100       8.53104500      -0.00346839      -0.00286074       0.00286012
Mo       7.24978200       1.32329700       9.93880900      -0.00696399      -0.00157475       0.00157467
Mo      10.11530900       4.13882400       9.93880900      -0.00700749      -0.00158992       0.00157470
Mo       8.68254500       5.54658700       0.08446600      -0.00346839      -0.00284446       0.00284408
Mo       5.81701900       8.36211400       0.08446600      -0.00352907      -0.00286033       0.00284410
Mo      10.11530900       6.95435000       1.49222900      -0.00700749      -0.00157516       0.00158940
Mo       7.24978200       9.76987700       1.49222900      -0.00696396      -0.00158892       0.00158938
Mo       5.81701900       5.54658700       2.89999200      -0.00352905      -0.00284446       0.00286030
Mo       8.68254500       8.36211400       2.89999200      -0.00346839      -0.00286033       0.00286030
Mo       7.24978200       6.95435000       4.30775600      -0.00696399      -0.00157516       0.00157508
Mo      10.11530900       9.76987700       4.30775600      -0.00700749      -0.00158892       0.00157508
Mo       8.68254500       5.54658700       5.71551900      -0.00346839      -0.00284446       0.00284446
Mo       5.81701900       8.36211400       5.71551900      -0.00352907      -0.00286033       0.00284449
Mo      10.11530900       6.95435000       7.12328200      -0.00700749      -0.00157516       0.00158956
Mo       7.24978200       9.76987700       7.12328200      -0.00696396      -0.00158894       0.00158953
Mo       5.81701900       5.54658700       8.53104500      -0.00352905      -0.00284446       0.00286012
Mo       8.68254500       8.36211400       8.53104500      -0.00346839      -0.00286033       0.00286012
Mo       7.24978200       6.95435000       9.93880900      -0.00696399      -0.00157516       0.00157467
Mo      10.11530900       9.76987700       9.93880900      -0.00700749      -0.00158892       0.00157470
64
Lattice="11.662106 0.0 0.0 0.0 11.262106 0.0 0.0 0.0 11.262106" Properties=species:S:1:pos:R:3:forces:R:3 energy=-178.50174399999923 stress="0.010496470373927314 -0.00013193925811822455 0.00013193925811822455 -0.00013193925811822455 0.023285396834629733 6.004751204545502e-05 0.00013193925811822455 6.004751204545502e-05 0.023285396834629733" pbc="T T T" 
Mo       3.03214800      -0.11262100       0.11262100       0.00427436       0.00028403      -0.00028496
Mo       0.11662100       2.70290500       0.11262100       0.00440278       0.00030444      -0.00028493
Mo       4.48991100       1.29514200       1.52038399      -0.00406224      -0.00660200       0.00662136
Mo       1.57438400       4.11066901       1.52038399      -0.00394029      -0.00662023       0.00662134
Mo       0.11662100      -0.11262100       2.92814800       0.00440278       0.00028400      -0.00030421
Mo       3.03214800       2.70290500       2.92814800       0.00427431       0.00030444      -0.00030419
Mo       1.57438400       1.29514200       4.33591100      -0.00394042      -0.00660208       0.00660156
Mo       4.48991100       4.11066901       4.33591100      -0.00406227      -0.00662023       0.00660154
Mo       3.03214800      -0.11262100       5.74367400       0.00427436       0.00028403      -0.00028616
Mo       0.11662100       2.70290500       5.74367400       0.00440278       0.00030444      -0.00028616
Mo       4.48991100       1.29514200       7.15143699      -0.00406224      -0.00660200       0.00662085
Mo       1.57438400       4.11066901       7.15143699      -0.00394029      -0.00662023       0.00662085
Mo       0.11662100      -0.11262100       8.55920100       0.00440278       0.00028400      -0.00030370
Mo       3.03214800       2.70290500       8.55920100       0.00427431       0.00030442      -0.00030365
Mo       1.57438400       1.29514200       9.96696400      -0.00394042      -0.00660205       0.00660280
Mo       4.48991100       4.11066901       9.96696400      -0.00406227      -0.00662026       0.00660277
Mo       3.03214800       5.51843200       0.11262100       0.00427438       0.00028750      -0.00028493
Mo       0.11662100       8.33395800       0.11262100       0.00440278       0.00030300      -0.00028493
Mo       4.48991100       6.92619500       1.52038399      -0.00406224      -0.00660056       0.00662136
Mo       1.57438400       9.74172201       1.52038399      -0.00394029      -0.00662370       0.00662134
Mo       0.11662100       5.51843200       2.92814800       0.00440278       0.00028748      -0.00030421
Mo       3.03214800       8.33395800       2.92814800       0.00427431       0.00030300      -0.00030419
Mo       1.57438400       6.92619500       4.33591100      -0.00394045      -0.00660061       0.00660159
Mo       4.48991100       9.74172201       4.33591100      -0.00406224      -0.00662373       0.00660154
Mo       3.03214800       5.51843200       5.74367400       0.00427438       0.00028750      -0.00028616
Mo       0.11662100       8.33395800       5.74367400       0.00440278       0.00030300      -0.00028616
Mo       4.48991100       6.92619500       7.15143699      -0.00406224      -0.00660056       0.00662085
Mo       1.57438400       9.74172201       7.15143699      -0.00394029      -0.00662373       0.00662082
Mo       0.11662100       5.51843200       8.55920100       0.00440278       0.00028750      -0.00030370
Mo       3.03214800       8.33395800       8.55920100       0.00427431       0.00030298      -0.00030367
Mo       1.57438400       6.92619500       9.96696400      -0.00394042      -0.00660061       0.00660282
Mo       4.48991100       9.74172201       9.96696400      -0.00406224      -0.00662373       0.00660277
Mo       8.86320100      -0.11262100       0.11262100       0.00428644       0.00028403      -0.00028493
Mo       5.94767400       2.70290500       0.11262100       0.00437370       0.00030444      -0.00028493
Mo      10.32096400       1.29514200       1.52038399      -0.00403316      -0.00660200       0.00662136
Mo       7.40543700       4.11066901       1.52038399      -0.00395233      -0.00662023       0.00662134
Mo       5.94767400      -0.11262100       2.92814800       0.00437368       0.00028400      -0.00030421
Mo       8.86320100       2.70290500       2.92814800       0.00428636       0.00030444      -0.00030419
Mo       7.40543700       1.29514200       4.33591100      -0.00395245      -0.00660205       0.00660156
Mo      10.32096400       4.11066901       4.33591100      -0.00403316      -0.00662026       0.00660154
Mo       8.86320100      -0.11262100       5.74367400       0.00428644       0.00028403      -0.00028616
Mo       5.94767400       2.70290500       5.74367400       0.00437370       0.00030444      -0.00028616
Mo      10.32096400       1.29514200       7.15143699      -0.00403316      -0.00660200       0.00662087
Mo       7.40543700       4.11066901       7.15143699      -0.00395233      -0.00662023       0.00662085
Mo       5.94767400      -0.11262100       8.55920100       0.00437368       0.00028400      -0.00030367
Mo       8.86320100       2.70290500       8.55920100       0.00428636       0.00030442      -0.00030365
Mo       7.40543700       1.29514200       9.96696400      -0.00395245      -0.00660205       0.00660280
Mo      10.32096400       4.11066901       9.96696400      -0.00403316      -0.00662026       0.00660277
Mo       8.86320100       5.51843200       0.11262100       0.00428644       0.00028750      -0.00028493
Mo       5.94767400       8.33395800       0.11262100       0.00437368       0.00030300      -0.00028493
Mo      10.32096400       6.92619500       1.52038399      -0.00403314      -0.00660056       0.00662136
Mo       7.40543700       9.74172201       1.52038399      -0.00395235      -0.00662370       0.00662134
Mo       5.94767400       5.51843200       2.92814800       0.00437368       0.00028748      -0.00030421
Mo       8.86320100       8.33395800       2.92814800       0.00428639       0.00030298      -0.00030419
Mo       7.40543700       6.92619500       4.33591100      -0.00395248      -0.00660061       0.00660159
Mo      10.32096400       9.74172201       4.33591100      -0.00403316      -0.00662373       0.00660154
Mo       8.86320100       5.51843200       5.74367400       0.00428644       0.00028750      -0.00028616
Mo       5.94767400       8.33395800       5.74367400       0.00437368       0.00030300      -0.00028614
Mo      10.32096400       6.92619500       7.15143699      -0.00403316      -0.00660056       0.00662085
Mo       7.40543700       9.74172201       7.15143699      -0.00395235      -0.00662373       0.00662082
Mo       5.94767400       5.51843200       8.55920100       0.00437368       0.00028748      -0.00030370
Mo       8.86320100       8.33395800       8.55920100       0.00428639       0.00030298      -0.00030367
Mo       7.40543700       6.92619500       9.96696400      -0.00395248      -0.00660061       0.00660282
Mo      10.32096400       9.74172201       9.96696400      -0.00403316      -0.00662373       0.00660277
64
Lattice="12.462106 0.0 0.0 0.0 11.262106 0.0 0.0 0.0 11.262106" Properties=species:S:1:pos:R:3:forces:R:3 energy=-175.88138099999924 stress="0.039381159983144245 0.00021751155357138064 -0.00021751155357138064 0.00021751155357138064 0.0634764637042464 -0.0002935350091885622 -0.00021751155357138064 -0.0002935350091885622 0.0634764637042464" pbc="T T T" 
Mo       3.36476899      -0.22524200       0.22524200      -0.00280615      -0.00024297       0.00024755
Mo       0.24924200       2.59028400       0.22524200      -0.00291077      -0.00025277       0.00025253
Mo       4.92253199       1.18252099       1.63300500       0.00051731       0.00550489      -0.00549432
Mo       1.80700500       3.99804800       1.63300500       0.00040629       0.00547630      -0.00548905
Mo       0.24924200      -0.22524200       3.04076900      -0.00291077      -0.00024798       0.00025055
Mo       3.36476899       2.59028400       3.04076900      -0.00280608      -0.00024773       0.00024551
Mo       1.80700500       1.18252099       4.44853201       0.00040626       0.00549959      -0.00548933
Mo       4.92253199       3.99804800       4.44853201       0.00051731       0.00548157      -0.00549463
Mo       3.36476899      -0.22524200       5.85629500      -0.00280615      -0.00024297       0.00025958
Mo       0.24924200       2.59028400       5.85629500      -0.00291077      -0.00025277       0.00026457
Mo       4.92253199       1.18252099       7.26405800       0.00051731       0.00550489      -0.00548928
Mo       1.80700500       3.99804800       7.26405800       0.00040629       0.00547630      -0.00548403
Mo       0.24924200      -0.22524200       8.67182200      -0.00291075      -0.00024798       0.00024564
Mo       3.36476899       2.59028400       8.67182200      -0.00280608      -0.00024773       0.00024060
Mo       1.80700500       1.18252099      10.07958501       0.00040626       0.00549962      -0.00550134
Mo       4.92253199       3.99804800      10.07958501       0.00051731       0.00548157      -0.00550663
Mo       3.36476899       5.40581100       0.22524200      -0.00280615      -0.00026323       0.00024757
Mo       0.24924200       8.22133700       0.22524200      -0.00291077      -0.00024428       0.00025253
Mo       4.92253199       6.81357399       1.63300500       0.00051731       0.00549653      -0.00549432
Mo       1.80700500       9.62910100       1.63300500       0.00040629       0.00549661      -0.00548907
Mo       0.24924200       5.40581100       3.04076900      -0.00291077      -0.00026824       0.00025055
Mo       3.36476899       8.22133700       3.04076900      -0.00280605      -0.00023927       0.00024551
Mo       1.80700500       6.81357399       4.44853201       0.00040623       0.00549126      -0.00548933
Mo       4.92253199       9.62910100       4.44853201       0.00051731       0.00550188      -0.00549463
Mo       3.36476899       5.40581100       5.85629500      -0.00280615      -0.00026323       0.00025960
Mo       0.24924200       8.22133700       5.85629500      -0.00291077      -0.00024431       0.00026459
Mo       4.92253199       6.81357399       7.26405800       0.00051731       0.00549653      -0.00548928
Mo       1.80700500       9.62910100       7.26405800       0.00040629       0.00549661      -0.00548403
Mo       0.24924200       5.40581100       8.67182200      -0.00291077      -0.00026824       0.00024562
Mo       3.36476899       8.22133700       8.67182200      -0.00280605      -0.00023927       0.00024058
Mo       1.80700500       6.81357399      10.07958501       0.00040626       0.00549126      -0.00550134
Mo       4.92253199       9.62910100      10.07958501       0.00051731       0.00550188      -0.00550663
Mo       9.59582199      -0.22524200       0.22524200      -0.00280880      -0.00024297       0.00024755
Mo       6.48029500       2.59028400       0.22524200      -0.00290434      -0.00025277       0.00025253
Mo      11.15358499       1.18252099       1.63300500       0.00051088       0.00550489      -0.00549432
Mo       8.03805800       3.99804800       1.63300500       0.00040893       0.00547630      -0.00548905
Mo       6.48029500      -0.22524200       3.04076900      -0.00290434      -0.00024798       0.00025055
Mo       9.59582199       2.59028400       3.04076900      -0.00280872      -0.00024773       0.00024551
Mo       8.03805800       1.18252099       4.44853201       0.00040891       0.00549959      -0.00548933
Mo      11.15358499       3.99804800       4.44853201       0.00051088       0.00548157      -0.00549463
Mo       9.59582199      -0.22524200       5.85629500      -0.00280880      -0.00024297       0.00025958
Mo       6.48029500       2.59028400       5.85629500      -0.00290434      -0.00025277       0.00026457
Mo      11.15358499       1.18252099       7.26405800       0.00051088       0.00550489      -0.00548928
Mo       8.03805800       3.99804800       7.26405800       0.00040893       0.00547630      -0.00548403
Mo       6.48029500      -0.22524200       8.67182200      -0.00290434      -0.00024798       0.00024564
Mo       9.59582199       2.59028400       8.67182200      -0.00280872      -0.00024773       0.00024060
Mo       8.03805800       1.18252099      10.07958501       0.00040891       0.00549962      -0.00550134
Mo      11.15358499       3.99804800      10.07958501       0.00051088       0.00548157      -0.00550666
Mo       9.59582199       5.40581100       0.22524200      -0.00280880      -0.00026323       0.00024755
Mo       6.48029500       8.22133700       0.22524200      -0.00290437      -0.00024428       0.00025253
Mo      11.15358499       6.81357399       1.63300500       0.00051088       0.00549653      -0.00549432
Mo       8.03805800       9.62910100       1.63300500       0.00040893       0.00549663      -0.00548907
Mo       6.48029500       5.40581100       3.04076900      -0.00290434      -0.00026824       0.00025055
Mo       9.59582199       8.22133700       3.04076900      -0.00280872      -0.00023924       0.00024551
Mo       8.03805800       6.81357399       4.44853201       0.00040891       0.00549126      -0.00548933
Mo      11.15358499       9.62910100       4.44853201       0.00051090       0.00550188      -0.00549463
Mo       9.59582199       5.40581100       5.85629500      -0.00280880      -0.00026323       0.00025960
Mo       6.48029500       8.22133700       5.85629500      -0.00290437      -0.00024431       0.00026459
Mo      11.15358499       6.81357399       7.26405800       0.00051088       0.00549653      -0.00548928
Mo       8.03805800       9.62910100       7.26405800       0.00040893       0.00549661      -0.00548403
Mo       6.48029500       5.40581100       8.67182200      -0.00290434      -0.00026824       0.00024562
Mo       9.59582199       8.22133700       8.67182200      -0.00280872      -0.00023924       0.00024058
Mo       8.03805800       6.81357399      10.07958501       0.00040891       0.00549126      -0.00550134
Mo      11.15358499       9.62910100      10.07958501       0.00051090       0.00550188      -0.00550663
64
Lattice="13.462106 0.0 0.0 0.0 11.262106 0.0 0.0 0.0 11.262106" Properties=species:S:1:pos:R:3:forces:R:3 energy=-168.3756369999992 stress="0.07806745823668604 4.214343735300283e-05 -4.214343735300283e-05 4.214343735300283e-05 0.09965756873735969 -6.271016930740944e-05 -4.214343735300283e-05 -6.271016930740944e-05 0.09965756873735969" pbc="T T T" 
Mo       3.76939000      -0.33786300       0.33786300       0.00292378      -0.00233495       0.00214836
Mo       0.40386300       2.47766300       0.33786300       0.00293013      -0.00210712       0.00214836
Mo       5.45215300       1.06990000       1.74562600       0.00109886       0.00047221      -0.00060064
Mo       2.08662600       3.88542700       1.74562600       0.00110599       0.00079617      -0.00060071
Mo       0.40386300      -0.33786300       3.15339000       0.00293018      -0.00233497       0.00218508
Mo       3.76939000       2.47766300       3.15339000       0.00292378      -0.00210710       0.00218510
Mo       2.08662600       1.06990000       4.56115300       0.00110593       0.00047216      -0.00055947
Mo       5.45215300       3.88542700       4.56115300       0.00109884       0.00079609      -0.00055947
Mo       3.76939000      -0.33786300       5.96891600       0.00292378      -0.00233497       0.00212512
Mo       0.40386300       2.47766300       5.96891600       0.00293013      -0.00210710       0.00212512
Mo       5.45215300       1.06990000       7.37667900       0.00109886       0.00047221      -0.00061089
Mo       2.08662600       3.88542700       7.37667900       0.00110599       0.00079617      -0.00061095