8
Lattice="10.053541 0.0 0.0 0.0 6.253541 0.0 0.0 0.0 6.253541" Properties=species:S:1:pos:R:3:forces:R:3 energy=-15.036567999999988 stress="0.09498506432146793 0.0 0.0 0.0 0.047148131216265314 0.0 0.0 0.0 0.047148131216265314" pbc="T T T" 
Se       5.02677000       0.00000000       0.00000000       0.00000414       0.00000039       0.00000039
Se       0.00000000       3.12677000       0.00000000      -0.00000121       0.00000208       0.00000039
Se       7.54015600       1.56338500       1.56338500      -0.00000141       0.00000085       0.00000085
Se       2.51338500       4.69015600       1.56338500       0.00000386      -0.00000090       0.00000085
Se       0.00000000       0.00000000       3.12677000      -0.00000121       0.00000039       0.00000208
Se       5.02677000       3.12677000       3.12677000       0.00000414       0.00000206       0.00000206
Se       2.51338500       1.56338500       4.69015600       0.00000386       0.00000085      -0.00000090
Se       7.54015600       4.69015600       4.69015600      -0.00000141      -0.00000090      -0.00000090
8
Lattice="6.053541 0.0 0.0 0.0 6.253541 0.0 0.0 0.0 6.253541" Properties=species:S:1:pos:R:3:forces:R:3 energy=-23.350838999999723 stress="-0.010767694151576052 -9.181576765360095e-08 -9.181576765360095e-08 -9.181576765360095e-08 -0.018613259681808596 9.181576765360095e-08 -9.181576765360095e-08 9.181576765360095e-08 -0.018613259681808596" pbc="T T T" 
Se       3.02677100       0.00000000       0.00000000       0.00014655      -0.00002425      -0.00002422
Se       0.00000000       3.12677000       0.00000000      -0.00014023       0.00001810      -0.00002422
Se       4.54015600       1.56338500       1.56338500       0.00014295       0.00002507       0.00002509
Se       1.51338500       4.69015600       1.56338500      -0.00014938      -0.00001885       0.00002507
Se       0.00000000       0.00000000       3.12677000      -0.00014023      -0.00002425       0.00001807
Se       3.02677100       3.12677000       3.12677000       0.00014655       0.00001813       0.00001813
Se       1.51338500       1.56338500       4.69015600      -0.00014938       0.00002507      -0.00001885
Se       4.54015600       4.69015600       4.69015600       0.00014293      -0.00001890      -0.00001890
8
Lattice="6.253541 0.0 0.0 0.0 6.253541 0.0 0.0 0.0 6.253541" Properties=species:S:1:pos:R:3:forces:R:3 energy=-23.41599899999983 stress="-0.004748252424205973 -9.181576765360095e-08 -9.181576765360095e-08 -9.181576765360095e-08 -0.004748252424205973 -9.181576765360095e-08 -9.181576765360095e-08 -9.181576765360095e-08 -0.004748252424205973" pbc="T T T" 
Se       3.12677000       0.00000000       0.00000000       0.00001224      -0.00001838      -0.00001838
Se       0.00000000       3.12677000       0.00000000      -0.00001838       0.00001224      -0.00001838
Se       4.69015600       1.56338500       1.56338500      -0.00001244       0.00001877       0.00001879
Se       1.56338500       4.69015600       1.56338500       0.00001877      -0.00001244       0.00001879
Se       0.00000000       0.00000000       3.12677000      -0.00001838      -0.00001838       0.00001224
Se       3.12677000       3.12677000       3.12677000       0.00001226       0.00001226       0.00001226
Se       1.56338500       1.56338500       4.69015600       0.00001879       0.00001879      -0.00001244
Se       4.69015600       4.69015600       4.69015600      -0.00001242      -0.00001242      -0.00001242
8
Lattice="6.453541 0.0 0.0 0.0 6.253541 0.0 0.0 0.0 6.253541" Properties=species:S:1:pos:R:3:forces:R:3 energy=-23.426766999999927 stress="0.0011136334458705258 -9.181576765360095e-08 -9.181576765360095e-08 -9.181576765360095e-08 0.00639891629508241 -9.181576765360095e-08 -9.181576765360095e-08 -9.181576765360095e-08 0.00639891629508241" pbc="T T T" 
Se       3.22677000       0.00000000       0.00000000       0.00015609      -0.00001100      -0.00001100
Se       0.00000000       3.12677000       0.00000000      -0.00016172       0.00000553      -0.00001100
Se       4.84015600       1.56338500       1.56338500      -0.00015712       0.00001085       0.00001085
Se       1.61338500       4.69015600       1.56338500       0.00016321      -0.00000496       0.00001088
Se       0.00000000       0.00000000       3.12677000      -0.00016172      -0.00001100       0.00000553
Se       3.22677000       3.12677000       3.12677000       0.00015604       0.00000553       0.00000553
Se       1.61338500       1.56338500       4.69015600       0.00016321       0.00001090      -0.00000496
Se       4.84015600       4.69015600       4.69015600      -0.00015709      -0.00000491      -0.00000491
8
Lattice="6.653541 0.0 0.0 0.0 6.253541 0.0 0.0 0.0 6.253541" Properties=species:S:1:pos:R:3:forces:R:3 energy=-23.380533999999898 stress="0.006725688612161576 -9.181576765360095e-08 -9.181576765360095e-08 -9.181576765360095e-08 0.016493141790919298 -0.0 -9.181576765360095e-08 -0.0 0.016493141790919298" pbc="T T T" 
Se       3.32677000       0.00000000       0.00000000       0.00030591       0.00004759       0.00004754
Se       0.00000000       3.12677000       0.00000000      -0.00031056      -0.00005230       0.00004754
Se       4.99015600       1.56338500       1.56338500      -0.00033221      -0.00004664      -0.00004674
Se       1.66338500       4.69015600       1.56338500       0.00033746       0.00005199      -0.00004674
Se       0.00000000       0.00000000       3.12677000      -0.00031056       0.00004759      -0.00005224
Se       3.32677000       3.12677000       3.12677000       0.00030591      -0.00005227      -0.00005222
Se       1.66338500       1.56338500       4.69015600       0.00033746      -0.00004667       0.00005206
Se       4.99015600       4.69015600       4.69015600      -0.00033221       0.00005199       0.00005206
8
Lattice="6.853541 0.0 0.0 0.0 6.253541 0.0 0.0 0.0 6.253541" Properties=species:S:1:pos:R:3:forces:R:3 energy=-23.311347999999725 stress="0.014235759327387866 -0.0 -0.0 -0.0 0.02609734653478892 0.0 -0.0 0.0 0.02609734653478892" pbc="T T T" 
Se       3.42677100       0.00000000       0.00000000       0.00000113      -0.00000596      -0.00000596
Se       0.00000000       3.12677000       0.00000000       0.00000123       0.00000278      -0.00000596
Se       5.14015600       1.56338500       1.56338500      -0.00000165       0.00000648       0.00000645
Se       1.71338500       4.69015600       1.56338500      -0.00000154      -0.00000237       0.00000645
Se       0.00000000       0.00000000       3.12677000       0.00000123      -0.00000596       0.00000278
Se       3.42677100       3.12677000       3.12677000       0.00000116       0.00000278       0.00000278
Se       1.71338500       1.56338500       4.69015600      -0.00000154       0.00000645      -0.00000237
Se       5.14015600       4.69015600       4.69015600      -0.00000167      -0.00000242      -0.00000242
8
Lattice="7.053541 0.0 0.0 0.0 6.253541 0.0 0.0 0.0 6.253541" Properties=species:S:1:pos:R:3:forces:R:3 energy=-23.16968999999972 stress="0.022301407252686093 -0.0 -0.0 -0.0 0.03339073203835271 0.0 -0.0 0.0 0.03339073203835271" pbc="T T T" 
Se       3.52677100       0.00000000       0.00000000      -0.00000003      -0.00000419      -0.00000419
Se       0.00000000       3.12677000       0.00000000       0.00000170       0.00000059      -0.00000419
Se       5.29015600       1.56338500       1.56338500      -0.00000224       0.00000481       0.00000481
Se       1.76338500       4.69015600       1.56338500      -0.00000051      -0.00000093       0.00000478
Se       0.00000000       0.00000000       3.12677000       0.00000170      -0.00000419       0.00000059
Se       3.52677100       3.12677000       3.12677000       0.00000010       0.00000069       0.00000067
Se       1.76338500       1.56338500       4.69015600      -0.00000051       0.00000478      -0.00000093
Se       5.29015600       4.69015600       4.69015600      -0.00000224      -0.00000095      -0.00000095
8
Lattice="7.253541 0.0 0.0 0.0 6.253541 0.0 0.0 0.0 6.253541" Properties=species:S:1:pos:R:3:forces:R:3 energy=-22.969037999999728 stress="0.028957866776036855 -0.0 -0.0 -0.0 0.03947159851428304 -0.0 -0.0 -0.0 0.03947159851428304" pbc="T T T" 
Se       3.62677000       0.00000000       0.00000000      -0.00000098       0.00001124       0.00001124
Se       0.00000000       3.12677000       0.00000000      -0.00000141      -0.00001435       0.00001124
Se       5.44015600       1.56338500       1.56338500      -0.00000129      -0.00001018      -0.00001018
Se       1.81338500       4.69015600       1.56338500       0.00000507       0.00001460      -0.00001021
Se       0.00000000       0.00000000       3.12677000      -0.00000141       0.00001124      -0.00001435
Se       3.62677000       3.12677000       3.12677000      -0.00000100      -0.00001437      -0.00001437
Se       1.81338500       1.56338500       4.69015600       0.00000507      -0.00001021       0.00001460
Se       5.44015600       4.69015600       4.69015600      -0.00000129       0.00001460       0.00001460
8
Lattice="7.653541 0.0 0.0 0.0 6.253541 0.0 0.0 0.0 6.253541" Properties=species:S:1:pos:R:3:forces:R:3 energy=-22.391507999999703 stress="0.04429798615676223 -0.0 -0.0 -0.0 0.04849690484309671 0.0 -0.0 0.0 0.04849690484309671" pbc="T T T" 
Se       3.82677100       0.00000000       0.00000000       0.00001743      -0.00000360      -0.00000360
Se       0.00000000       3.12677000       0.00000000      -0.00001712       0.00000216      -0.00000360
Se       5.74015600       1.56338500       1.56338500       0.00001592       0.00000447       0.00000447
Se       1.91338500       4.69015600       1.56338500      -0.00001823      -0.00000131       0.00000447
Se       0.00000000       0.00000000       3.12677000      -0.00001712      -0.00000360       0.00000216
Se       3.82677100       3.12677000       3.12677000       0.00001743       0.00000216       0.00000216
Se       1.91338500       1.56338500       4.69015600      -0.00001823       0.00000447      -0.00000131
Se       5.74015600       4.69015600       4.69015600       0.00001592      -0.00000131      -0.00000131
8
Lattice="8.053541 0.0 0.0 0.0 6.253541 0.0 0.0 0.0 6.253541" Properties=species:S:1:pos:R:3:forces:R:3 energy=-21.58042499999965 stress="0.0597141289931048 -0.0 -0.0 -0.0 0.053006895350241584 -0.0 -0.0 -0.0 0.053006895350241584" pbc="T T T" 
Se       4.02677000       0.00000000       0.00000000       0.00000303       0.00000000       0.00000000
Se       0.00000000       3.12677000       0.00000000      -0.00000229       0.00000003       0.00000000
Se       6.04015600       1.56338500       1.56338500      -0.00000167       0.00000098       0.00000095
Se       2.01338500       4.69015600       1.56338500       0.00000370       0.00000108       0.00000095
Se       0.00000000       0.00000000       3.12677000      -0.00000229       0.00000000       0.00000003
Se       4.02677000       3.12677000       3.12677000       0.00000301       0.00000003       0.00000003
Se       2.01338500       1.56338500       4.69015600       0.00000370       0.00000098       0.00000108
Se       6.04015600       4.69015600       4.69015600      -0.00000167       0.00000108       0.00000108
8
Lattice="8.453541 0.0 0.0 0.0 6.253541 0.0 0.0 0.0 6.253541" Properties=species:S:1:pos:R:3:forces:R:3 energy=-20.549295999999686 stress="0.07227746411268231 -0.0 -0.0 -0.0 0.05483558999459836 -0.0 -0.0 -0.0 0.05483558999459836" pbc="T T T" 
Se       4.22677000       0.00000000       0.00000000       0.00000345      -0.00000666      -0.00000666
Se       0.00000000       3.12677000       0.00000000      -0.00000309       0.00000784      -0.00000666
Se       6.34015600       1.56338500       1.56338500      -0.00000162       0.00000792       0.00000792
Se       2.11338500       4.69015600       1.56338500       0.00000483      -0.00000674       0.00000789
Se       0.00000000       0.00000000       3.12677000      -0.00000309      -0.00000666       0.00000784
Se       4.22677000       3.12677000       3.12677000       0.00000350       0.00000784       0.00000782
Se       2.11338500       1.56338500       4.69015600       0.00000483       0.00000789      -0.00000676
Se       6.34015600       4.69015600       4.69015600      -0.00000165      -0.00000676      -0.00000679
8
Lattice="8.853541 0.0 0.0 0.0 6.253541 0.0 0.0 0.0 6.253541" Properties=species:S:1:pos:R:3:forces:R:3 energy=-19.333384000000024 stress="0.08272398670900608 -0.0 -0.0 -0.0 0.05418544254384321 -0.0 -0.0 -0.0 0.05418544254384321" pbc="T T T" 
Se       4.42677100       0.00000000       0.00000000      -0.00000306      -0.00000026      -0.00000026
Se       0.00000000       3.12677000       0.00000000       0.00000118       0.00000206      -0.00000026
Se       6.64015600       1.56338500       1.56338500      -0.00000298       0.00000147       0.00000147
Se       2.21338500       4.69015600       1.56338500       0.00000059      -0.00000077       0.00000149
Se       0.00000000       0.00000000       3.12677000       0.00000118      -0.00000026       0.00000206
Se       4.42677100       3.12677000       3.12677000      -0.00000309       0.00000203       0.00000203
Se       2.21338500       1.56338500       4.69015600       0.00000059       0.00000149      -0.00000077
Se       6.64015600       4.69015600       4.69015600      -0.00000298      -0.00000077      -0.00000077
8
Lattice="9.253541 0.0 0.0 0.0 6.253541 0.0 0.0 0.0 6.253541" Properties=species:S:1:pos:R:3:forces:R:3 energy=-17.98548099999971 stress="0.08973641596354985 0.0 0.0 0.0 0.051956798415587355 0.0 0.0 0.0 0.051956798415587355" pbc="T T T" 
Se       4.62677000       0.00000000       0.00000000       0.00000339      -0.00000010      -0.00000010
Se       0.00000000       3.12677000       0.00000000      -0.00000080       0.00000231      -0.00000010
Se       6.94015600       1.56338500       1.56338500      -0.00000098       0.00000141       0.00000141
Se       2.31338500       4.69015600       1.56338500       0.00000324      -0.00000108       0.00000141
Se       0.00000000       0.00000000       3.12677000      -0.00000080      -0.00000010       0.00000231
Se       4.62677000       3.12677000       3.12677000       0.00000339       0.00000237       0.00000237
Se       2.31338500       1.56338500       4.69015600       0.00000324       0.00000141      -0.00000108
Se       6.94015600       4.69015600       4.69015600      -0.00000100      -0.00000108      -0.00000108
8
Lattice="9.653541 0.0 0.0 0.0 6.253541 0.0 0.0 0.0 6.253541" Properties=species:S:1:pos:R:3:forces:R:3 energy=-16.54445399999986 stress="0.09304720072937103 0.0 0.0 0.0 0.04930947438683108 -0.0 0.0 -0.0 0.04930947438683108" pbc="T T T" 
Se       4.82677100       0.00000000       0.00000000      -0.00000548       0.00000021       0.00000021
Se       0.00000000       3.12677000       0.00000000       0.00000255       0.00000221       0.00000021
Se       7.24015600       1.56338500       1.56338500      -0.00000203       0.00000077       0.00000077
Se       2.41338500       4.69015600       1.56338500      -0.00000026      -0.00000064       0.00000075
Se       0.00000000       0.00000000       3.12677000       0.00000255       0.00000021       0.00000221
Se       4.82677100       3.12677000       3.12677000      -0.00000545       0.00000221       0.00000221
Se       2.41338500       1.56338500       4.69015600      -0.00000026       0.00000075      -0.00000064
Se       7.24015600       4.69015600       4.69015600      -0.00000206      -0.00000064      -0.00000064
8
Lattice="10.053541 0.0 0.0 0.0 6.253541 0.0 0.0 0.0 6.253541" Properties=species:S:1:pos:R:3:forces:R:3 energy=-15.036567999999988 stress="0.09498506432146793 0.0 0.0 0.0 0.047148131216265314 0.0 0.0 0.0 0.047148131216265314" pbc="T T T" 
Se       5.02677000       0.00000000       0.00000000       0.00000414       0.00000039       0.00000039
Se       0.00000000       3.12677000       0.00000000      -0.00000121       0.00000208       0.00000039
Se       7.54015600       1.56338500       1.56338500      -0.00000141       0.00000085       0.00000085
Se       2.51338500       4.69015600       1.56338500       0.00000386      -0.00000090       0.00000085
Se       0.00000000       0.00000000       3.12677000      -0.00000121       0.00000039       0.00000208
Se       5.02677000       3.12677000       3.12677000       0.00000414       0.00000206       0.00000206
Se       2.51338500       1.56338500       4.69015600       0.00000386       0.00000085      -0.00000090
Se       7.54015600       4.69015600       4.69015600      -0.00000141      -0.00000090      -0.00000090
8
Lattice="10.853541 0.0 0.0 0.0 6.253541 0.0 0.0 0.0 6.253541" Properties=species:S:1:pos:R:3:forces:R:3 energy=-12.065607 stress="0.09380210997101894 0.0 0.0 0.0 0.04122188249306364 0.0 0.0 0.0 0.04122188249306364" pbc="T T T" 
Se       5.42677000       0.00000000       0.00000000       0.00000342      -0.00000411      -0.00000411
Se       0.00000000       3.12677000       0.00000000      -0.00000062       0.00000627      -0.00000411
Se       8.14015600       1.56338500       1.56338500      -0.00000095       0.00000471       0.00000471
Se       2.71338500       4.69015600       1.56338500       0.00000321      -0.00000486       0.00000471
Se       0.00000000       0.00000000       3.12677000      -0.00000062      -0.00000411       0.00000627
Se       5.42677000       3.12677000       3.12677000       0.00000337       0.00000627       0.00000627
Se       2.71338500       1.56338500       4.69015600       0.00000321       0.00000471      -0.00000486
Se       8.14015600       4.69015600       4.69015600      -0.00000098      -0.00000486      -0.00000486
8
Lattice="11.653541 0.0 0.0 0.0 6.253541 0.0 0.0 0.0 6.253541" Properties=species:S:1:pos:R:3:forces:R:3 energy=-9.194747000000007 stress="0.08817196709850013 0.0 0.0 0.0 0.03648005717259342 0.0 0.0 0.0 0.03648005717259342" pbc="T T T" 
Se       5.82677000       0.00000000       0.00000000       0.00003846      -0.00001160      -0.00001157
Se       0.00000000       3.12677000       0.00000000      -0.00003669       0.00001319      -0.00001152
Se       8.74015599       1.56338500       1.56338500      -0.00000815       0.00000219       0.00000219
Se       2.91338501       4.69015600       1.56338500       0.00001057      -0.00000237       0.00000221
Se       0.00000000       0.00000000       3.12677000      -0.00003669      -0.00001154       0.00001316
Se       5.82677000       3.12677000       3.12677000       0.00003844       0.00001324       0.00001322
Se       2.91338501       1.56338500       4.69015600       0.00001057       0.00000221      -0.00000239
Se       8.74015599       4.69015600       4.69015600      -0.00000843      -0.00000237      -0.00000237
8
Lattice="12.453541 0.0 0.0 0.0 6.253541 0.0 0.0 0.0 6.253541" Properties=species:S:1:pos:R:3:forces:R:3 energy=-6.581005000000005 stress="0.07777291325405329 -0.0 -0.0 -0.0 0.0322622244381223 0.0 -0.0 0.0 0.0322622244381223" pbc="T T T" 
Se       6.22677100       0.00000000       0.00000000       0.00007099      -0.00000090      -0.00000090
Se       0.00000000       3.12677000       0.00000000      -0.00006389       0.00000185      -0.00000072
Se       9.34015600       1.56338500       1.56338500      -0.00002535      -0.00000010      -0.00000010
Se       3.11338500       4.69015600       1.56338500       0.00001628      -0.00000018       0.00000008
Se       0.00000000       0.00000000       3.12677000      -0.00006389      -0.00000072       0.00000185
Se       6.22677100       3.12677000       3.12677000       0.00007011       0.00000203       0.00000203
Se       3.11338500       1.56338500       4.69015600       0.00001628       0.00000008      -0.00000021
Se       9.34015600       4.69015600       4.69015600      -0.00002617      -0.00000000      -0.00000000
8
Lattice="13.253541 0.0 0.0 0.0 6.253541 0.0 0.0 0.0 6.253541" Properties=species:S:1:pos:R:3:forces:R:3 energy=-4.294126999999662 stress="0.06609853839689794 -0.0 -0.0 -0.0 0.029481308467430033 -0.0 -0.0 -0.0 0.029481308467430033" pbc="T T T" 
Se       6.62677100       0.00000000       0.00000000       0.00000234       0.00000442       0.00000442
Se       0.00000000       3.12677000       0.00000000      -0.00000224      -0.00000373       0.00000442
Se       9.94015600       1.56338500       1.56338500       0.00000409       0.00000180       0.00000183
Se       3.31338500       4.69015600       1.56338500      -0.00000604      -0.00000183       0.00000183
Se       0.00000000       0.00000000       3.12677000      -0.00000224       0.00000442      -0.00000373
Se       6.62677100       3.12677000       3.12677000       0.00000234      -0.00000373      -0.00000370
Se       3.31338500       1.56338500       4.69015600      -0.00000604       0.00000180      -0.00000185
Se       9.94015600       4.69015600       4.69015600       0.00000409      -0.00000183      -0.00000185
8
Lattice="14.053541 0.0 0.0 0.0 6.253541 0.0 0.0 0.0 6.253541" Properties=species:S:1:pos:R:3:forces:R:3 energy=-2.4313250000000153 stress="0.05050225302441901 -0.0 -0.0 -0.0 0.029693770153780465 -0.0 -0.0 -0.0 0.029693770153780465" pbc="T T T" 
Se       7.02677101       0.00000000       0.00000000       0.00000059       0.00000116       0.00000116
Se       0.00000000       3.12677000       0.00000000      -0.00000000      -0.00000069       0.00000116
Se      10.54015600       1.56338500       1.56338500      -0.00000075      -0.00000111      -0.00000111
Se       3.51338500       4.69015600       1.56338500      -0.00000095       0.00000118      -0.00000108
Se       0.00000000       0.00000000       3.12677000      -0.00000000       0.00000116      -0.00000069
Se       7.02677101       3.12677000       3.12677000       0.00000057      -0.00000075      -0.00000075
Se       3.51338500       1.56338500       4.69015600      -0.00000095      -0.00000108       0.00000118
Se      10.54015600       4.69015600       4.69015600      -0.00000067       0.00000118       0.00000118
8
Lattice="14.853541 0.0 0.0 0.0 6.253541 0.0 0.0 0.0 6.253541" Properties=species:S:1:pos:R:3:forces:R:3 energy=-1.036091999999826 stress="0.03744696902175349 -0.0 -0.0 -0.0 0.029811477967912385 -0.0 -0.0 -0.0 0.029811477967912385" pbc="T T T" 
Se       7.42677101       0.00000000       0.00000000       0.00000118       0.00000131       0.00000131
Se       0.00000000       3.12677000       0.00000000      -0.00000054      -0.00000095       0.00000129
Se      11.14015600       1.56338500       1.56338500      -0.00000108      -0.00000134      -0.00000134
Se       3.71338500       4.69015600       1.56338500      -0.00000021       0.00000141      -0.00000129
Se       0.00000000       0.00000000       3.12677000      -0.00000054       0.00000129      -0.00000095
Se       7.42677101       3.12677000       3.12677000       0.00000116      -0.00000098      -0.00000098
Se       3.71338500       1.56338500       4.69015600      -0.00000021      -0.00000129       0.00000141
Se      11.14015600       4.69015600       4.69015600      -0.00000103       0.00000141       0.00000141
8
Lattice="15.653541 0.0 0.0 0.0 6.253541 0.0 0.0 0.0 6.253541" Properties=species:S:1:pos:R:3:forces:R:3 energy=-0.008246999999755644 stress="0.027849466828922583 -0.0 -0.0 -0.0 0.02917675556612304 -0.0 -0.0 -0.0 0.02917675556612304" pbc="T T T" 
Se       7.82677000       0.00000000       0.00000000      -0.00000046       0.00000147       0.00000147
Se       0.00000000       3.12677000       0.00000000      -0.00000021      -0.00000123       0.00000147
Se      11.74015600       1.56338500       1.56338500       0.00000095      -0.00000234      -0.00000234
Se       3.91338500       4.69015600       1.56338500       0.00000003       0.00000247      -0.00000234
Se       0.00000000       0.00000000       3.12677000      -0.00000021       0.00000147      -0.00000123
Se       7.82677000       3.12677000       3.12677000      -0.00000041      -0.00000123      -0.00000123
Se       3.91338500       1.56338500       4.69015600       0.00000003      -0.00000234       0.00000247
Se      11.74015600       4.69015600       4.69015600       0.00000095       0.00000247       0.00000247
8
Lattice="16.453541 0.0 0.0 0.0 6.253541 0.0 0.0 0.0 6.253541" Properties=species:S:1:pos:R:3:forces:R:3 energy=0.7529950000002827 stress="0.020964386044114356 -0.0 -0.0 -0.0 0.02780264078741925 -0.0 -0.0 -0.0 0.02780264078741925" pbc="T T T" 
Se       8.22677001       0.00000000       0.00000000      -0.00000411       0.00000098       0.00000098
Se       0.00000000       3.12677000       0.00000000       0.00000334      -0.00000069       0.00000095
Se      12.34015600       1.56338500       1.56338500      -0.00000147      -0.00000075      -0.00000075
Se       4.11338500       4.69015600       1.56338500       0.00000244       0.00000087      -0.00000075
Se       0.00000000       0.00000000       3.12677000       0.00000334       0.00000095      -0.00000069
Se       8.22677001       3.12677000       3.12677000      -0.00000411      -0.00000072      -0.00000072
Se       4.11338500       1.56338500       4.69015600       0.00000244      -0.00000075       0.00000087
Se      12.34015600       4.69015600       4.69015600      -0.00000147       0.00000087       0.00000087
8
Lattice="17.253541 0.0 0.0 0.0 6.253541 0.0 0.0 0.0 6.253541" Properties=species:S:1:pos:R:3:forces:R:3 energy=1.338832000000366 stress="0.015081107100174568 -0.0 -0.0 -0.0 0.026201924694146367 0.0 -0.0 0.0 0.026201924694146367" pbc="T T T" 
Se       8.62677000       0.00000000       0.00000000      -0.00000712       0.00000095       0.00000095
Se       0.00000000       3.12677000       0.00000000       0.00000674      -0.00000069       0.00000093
Se      12.94015599       1.56338500       1.56338500       0.00000111      -0.00000075      -0.00000075
Se       4.31338501       4.69015600       1.56338500      -0.00000067       0.00000085      -0.00000075
Se       0.00000000       0.00000000       3.12677000       0.00000674       0.00000093      -0.00000069
Se       8.62677000       3.12677000       3.12677000      -0.00000715      -0.00000069      -0.00000072
Se       4.31338501       1.56338500       4.69015600      -0.00000067      -0.00000075       0.00000085
Se      12.94015599       4.69015600       4.69015600       0.00000126       0.00000085       0.00000085
8
Lattice="18.053541 0.0 0.0 0.0 6.253541 0.0 0.0 0.0 6.253541" Properties=species:S:1:pos:R:3:forces:R:3 energy=1.76069600000028 stress="0.009502381057541776 -0.0 -0.0 -0.0 0.02470817397018994 0.0 -0.0 0.0 0.02470817397018994" pbc="T T T" 
Se       9.02676999       0.00000000       0.00000000      -0.00001201       0.00000093       0.00000103
Se       0.00000000       3.12677000       0.00000000       0.00001190      -0.00000067       0.00000103
Se      13.54015600       1.56338500       1.56338500       0.00000558       0.00000072      -0.00000211
Se       4.51338500       4.69015600       1.56338500      -0.00000543      -0.00000064      -0.00000208
Se       0.00000000       0.00000000       3.12677000       0.00001190       0.00000093      -0.00000075
Se       9.02676999       3.12677000       3.12677000      -0.00001203      -0.00000067      -0.00000077
Se       4.51338500       1.56338500       4.69015600      -0.00000543       0.00000072       0.00000219
Se      13.54015600       4.69015600       4.69015600       0.00000563      -0.00000064       0.00000219
8
Lattice="19.653541 0.0 0.0 0.0 6.253541 0.0 0.0 0.0 6.253541" Properties=species:S:1:pos:R:3:forces:R:3 energy=2.1312040000002526 stress="0.0015603171555052945 -0.0 -0.0 -0.0 0.022505054625341782 0.0 -0.0 0.0 0.022505054625341782" pbc="T T T" 
Se       9.82677099       0.00000000       0.00000000       0.00000203       0.00000080       0.00000154
Se       0.00000000       3.12677000       0.00000000      -0.00000195      -0.00000046       0.00000154
Se      14.74015601       1.56338500       1.56338500      -0.00000512      -0.00000031      -0.00000090
Se       4.91338499       4.69015600       1.56338500       0.00000499       0.00000033      -0.00000090
Se       0.00000000       0.00000000       3.12677000      -0.00000195       0.00000080      -0.00000121
Se       9.82677099       3.12677000       3.12677000       0.00000206      -0.00000046      -0.00000121
Se       4.91338499       1.56338500       4.69015600       0.00000499      -0.00000031       0.00000093
Se      14.74015601       4.69015600       4.69015600      -0.00000512       0.00000033       0.00000093
8
Lattice="21.253541 0.0 0.0 0.0 6.253541 0.0 0.0 0.0 6.253541" Properties=species:S:1:pos:R:3:forces:R:3 energy=2.165440000000217 stress="-4.958051453294451e-06 0.0 0.0 0.0 0.02076477856523543 0.0 0.0 0.0 0.02076477856523543" pbc="T T T" 
Se      10.62677101       0.00000000       0.00000000       0.00000003       0.00000116       0.00000126
Se       0.00000000       3.12677000       0.00000000      -0.00000000      -0.00000080       0.00000126
Se      15.94015601       1.56338500       1.56338500      -0.00000003      -0.00000072      -0.00000113
Se       5.31338499       4.69015600       1.56338500       0.00000003       0.00000072      -0.00000113
Se       0.00000000       0.00000000       3.12677000       0.00000000       0.00000116      -0.00000090
Se      10.62677101       3.12677000       3.12677000      -0.00000000      -0.00000082      -0.00000090
Se       5.31338499       1.56338500       4.69015600       0.00000003      -0.00000072       0.00000113
Se      15.94015601       4.69015600       4.69015600      -0.00000005       0.00000072       0.00000113
8
Lattice="22.853541 0.0 0.0 0.0 6.253541 0.0 0.0 0.0 6.253541" Properties=species:S:1:pos:R:3:forces:R:3 energy=2.1654160000002776 stress="-7.528892947595278e-06 0.0 0.0 0.0 0.019287095600618375 -0.0 0.0 -0.0 0.019287095600618375" pbc="T T T" 
Se      11.42677000       0.00000000       0.00000000       0.00000005       0.00000093       0.00000090