4
Lattice="3.531218 0.0 0.0 0.0 7.031086 0.0 0.0 0.0 3.745874" Properties=species:S:1:pos:R:3:forces:R:3 energy=-13.85083899999995 stress="-0.019238800506832583 0.00223461215315334 3.773628050562999e-05 0.00223461215315334 -0.007958958003284744 -3.4339097102446754e-05 3.773628050562999e-05 -3.4339097102446754e-05 -0.009261731930521688" pbc="T T T" 
Se       0.06233924      -2.57672470       1.87647131       0.00985622       0.00715055       0.00078992
Se       1.65046196      -3.33736058       0.00607680      -0.00081784      -0.01836897       0.00281348
Se      -0.11273306       0.18229592       0.00308235      -0.00840465       0.00733001       0.00648108
Se       1.83030654       0.94424837       1.87850793       0.01588798      -0.00658146      -0.00162802
4
Lattice="3.731218 0.0 0.0 0.0 7.031086 0.0 0.0 0.0 3.745874" Properties=species:S:1:pos:R:3:forces:R:3 energy=-13.845366000000013 stress="0.014905279905117924 -0.0035783359127637897 0.0001278075485738125 -0.0035783359127637897 0.002666329892660571 -0.00012046228716152444 0.0001278075485738125 -0.00012046228716152444 0.00725638374919939" pbc="T T T" 
Se      -0.17316054      -2.58353385       1.88002478      -0.00520736      -0.00731196       0.00065586
Se       1.99952033      -3.33804449       0.00883665       0.00379040       0.01610357      -0.00308895
Se       0.13597813       0.18136539       0.00762165      -0.01274085      -0.01531452      -0.00158462
Se       1.69334551       0.93438641       1.88089544       0.00809160       0.00354684       0.00493300
4
Lattice="3.931218 0.0 0.0 0.0 7.031086 0.0 0.0 0.0 3.745874" Properties=species:S:1:pos:R:3:forces:R:3 energy=-13.740332999999964 stress="0.020966130543699776 -0.0029789625815210825 1.074244481547131e-05 -0.0029789625815210825 0.013719571081639322 -1.652683817764817e-05 1.074244481547131e-05 -1.652683817764817e-05 0.006967714975696469" pbc="T T T" 
Se      -0.26513520      -2.57144262       1.88343318       0.00656449       0.01384501      -0.00245494
Se       2.19667115      -3.36495085       0.01236097      -0.00953535       0.01510580       0.00344286
Se       0.23370855       0.15518219       0.00993974      -0.02325504      -0.02039736       0.00014617
Se       1.70049123       0.94688467       1.88592823       0.01378356      -0.00419676       0.00134286
4
Lattice="4.131218 0.0 0.0 0.0 7.031086 0.0 0.0 0.0 3.745874" Properties=species:S:1:pos:R:3:forces:R:3 energy=-13.621641999999838 stress="0.023280530598944096 0.0023695813316041334 -7.042269379031193e-05 0.0023695813316041334 0.0233214804313176 -0.00010466997512510509 -7.042269379031193e-05 -0.00010466997512510509 0.012999919094770399" pbc="T T T" 
Se      -0.33308112      -2.55580171       1.88602054       0.01709961       0.02107307      -0.01270714
Se       2.37102677      -3.39488114       0.01855718      -0.01314831       0.00830160       0.01323761
Se       0.30767904       0.12656127       0.01185139      -0.01806516      -0.01703973      -0.00712221
Se       1.73284109       0.96565062       1.89326736       0.01294918      -0.00952393       0.01163787
4
Lattice="4.331218 0.0 0.0 0.0 7.031086 0.0 0.0 0.0 3.745874" Properties=species:S:1:pos:R:3:forces:R:3 energy=-13.486019999999826 stress="0.028854298590123593 0.0054839721704142775 -0.00011385155189046516 0.0054839721704142775 0.02693984801877836 -1.4965970127536953e-05 -0.00011385155189046516 -1.4965970127536953e-05 0.017560408274124754" pbc="T T T" 
Se      -0.38188734      -2.57115397       1.89057387      -0.00345618       0.01719343      -0.00481519
Se       2.52605619      -3.39417602       0.02239882       0.00276874      -0.01269264       0.00379387
Se       0.36143012       0.12660199       0.01492296       0.01854313      -0.00273943      -0.00466524
Se       1.78707269       0.95266983       1.89775137      -0.01898053       0.00425582       0.00569350
4
Lattice="4.531218 0.0 0.0 0.0 7.031086 0.0 0.0 0.0 3.745874" Properties=species:S:1:pos:R:3:forces:R:3 energy=-13.325325999999905 stress="0.03242602376761632 0.007903684911157276 -1.6159575107033765e-05 0.007903684911157276 0.029970411061720766 -4.517335768557167e-05 -1.6159575107033765e-05 -4.517335768557167e-05 0.02105317189143539" pbc="T T T" 
Se      -0.42418910      -2.58399055       1.89524293      -0.02847931      -0.00403033       0.00650206
Se       2.67613713      -3.39533129       0.02559164       0.02915302       0.00650127      -0.00306334
Se       0.41374226       0.12705166       0.01834178       0.02095974       0.00141807       0.00332138
Se       1.84344499       0.93817459       1.90231853      -0.02092019      -0.00346055      -0.00079295
4
Lattice="4.731218 0.0 0.0 0.0 7.031086 0.0 0.0 0.0 3.745874" Properties=species:S:1:pos:R:3:forces:R:3 energy=-13.155869999999823 stress="0.03265427776600317 0.009404689080758344 7.437077179941676e-05 0.009404689080758344 0.031564149156651976 0.0001068735535487915 7.437077179941676e-05 0.0001068735535487915 0.022375686208717858" pbc="T T T" 
Se      -0.46962594      -2.59922039       1.90008857      -0.01098411      -0.01293435       0.00426217
Se       2.83019125      -3.39400508       0.02819038       0.00393839       0.00503108      -0.00526745
Se       0.46704559       0.12752977       0.02250326       0.01632345       0.01524088       0.00922869
Se       1.89948583       0.92344301       1.90576503      -0.00984172      -0.00765608      -0.00695797
4
Lattice="4.931218 0.0 0.0 0.0 7.031086 0.0 0.0 0.0 3.745874" Properties=species:S:1:pos:R:3:forces:R:3 energy=-12.986770999999862 stress="0.031732355642993364 0.010082289446041918 1.1476970956700117e-05 0.010082289446041918 0.03221558202815427 9.365208300667296e-06 1.1476970956700117e-05 9.365208300667296e-06 0.023008847742457088" pbc="T T T" 
Se      -0.51276544      -2.61562925       1.90455710       0.00451915      -0.01605911       0.00571430
Se       2.98244838      -3.39181882       0.03122545      -0.00623732       0.01975006      -0.00585900
Se       0.52088356       0.13068086       0.02663827      -0.01434339       0.00994076       0.00847155
Se       1.95594524       0.90625794       1.90916690       0.01470329      -0.01308774      -0.00638215
4
Lattice="5.131218 0.0 0.0 0.0 7.031086 0.0 0.0 0.0 3.745874" Properties=species:S:1:pos:R:3:forces:R:3 energy=-12.812067999999954 stress="0.03003908925592566 0.009487506903181894 0.00010026281827773224 0.009487506903181894 0.03171821601477471 7.942063902036482e-05 0.00010026281827773224 7.942063902036482e-05 0.020886342641608796" pbc="T T T" 
Se      -0.55340148      -2.64851816       1.91020422      -0.00067905       0.01348194      -0.00329448
Se       3.13135215      -3.37546648       0.03391731      -0.00039142      -0.01278473       0.00439530
Se       0.57266476       0.14938565       0.03468867      -0.02938537      -0.02771675       0.00399866
Se       2.01591017       0.87332113       1.90965504       0.02968251       0.02689593      -0.00319318
4
Lattice="5.431218 0.0 0.0 0.0 7.031086 0.0 0.0 0.0 3.745874" Properties=species:S:1:pos:R:3:forces:R:3 energy=-12.58725400000003 stress="0.029184284459070637 0.009849536475040041 5.968024897484061e-05 0.009849536475040041 0.030933558464407037 7.77679552026e-05 5.968024897484061e-05 7.77679552026e-05 0.02063302293865251" pbc="T T T" 
Se      -0.62129098      -2.66845179       1.91430717       0.01251970      -0.02690945       0.00044753
Se       3.36066013      -3.36998022       0.03748038      -0.01486347       0.02588019       0.00176028
Se       0.65020580       0.15443579       0.03811729      -0.00546622       0.02542155      -0.00151294
Se       2.10131915       0.85500338       1.91366943       0.00565121      -0.02995454       0.00130936
4
Lattice="5.831218 0.0 0.0 0.0 7.031086 0.0 0.0 0.0 3.745874" Properties=species:S:1:pos:R:3:forces:R:3 energy=-12.286781999999903 stress="0.024800265185146497 0.007998806046446406 6.133293279260543e-05 0.007998806046446406 0.02775902829778379 5.141682988601653e-05 6.133293279260543e-05 5.141682988601653e-05 0.012583534588461317" pbc="T T T" 
Se      -0.70992034      -2.73045085       1.91470141       0.01027917       0.01610519       0.00183245
Se       3.66060244      -3.32621866       0.04303202      -0.01777617      -0.02889095      -0.00405129
Se       0.75156660       0.20082146       0.04229239       0.02481860      -0.00526691       0.00637958
Se       2.21582025       0.79827021       1.91769497      -0.01366464       0.01917580      -0.00775542
4
Lattice="6.231218 0.0 0.0 0.0 7.031086 0.0 0.0 0.0 3.745874" Properties=species:S:1:pos:R:3:forces:R:3 energy=-12.070919000000004 stress="0.018140683925695514 0.007794515963417145 -6.4271037357520665e-06 0.007794515963417145 0.023415040698556617 5.508946059216056e-07 -6.4271037357520665e-06 5.508946059216056e-07 0.0050380229869207375" pbc="T T T" 
Se      -0.81011911      -2.75539651       1.91862459       0.01716129      -0.01637731      -0.00083404
Se       3.97493027      -3.31661357       0.04657947      -0.02744776       0.00107953      -0.00549908
Se       0.86710861       0.21066818       0.04597596       0.01833924       0.02934585       0.00280834
Se       2.31687395       0.77556894       1.92120239      -0.01097128      -0.01462225      -0.00336743
4
Lattice="6.631218 0.0 0.0 0.0 7.031086 0.0 0.0 0.0 3.745874" Properties=species:S:1:pos:R:3:forces:R:3 energy=-11.90346599999998 stress="0.014106390910763942 0.0071814620827940516 -8.722497927092089e-06 0.0071814620827940516 0.019203451436285945 3.672630706144038e-06 -8.722497927092089e-06 3.672630706144038e-06 -0.0005851418872563988" pbc="T T T" 
Se      -0.90315443      -2.78216071       1.92252757      -0.00606510      -0.03336176      -0.00095982
Se       4.28364955      -3.30504351       0.04992681       0.00040999       0.02358314      -0.00191164
Se       0.98115250       0.22499129       0.04994207      -0.02362890       0.02467665      -0.00313793
Se       2.42115777       0.74838664       1.92463292       0.02931161      -0.01378476      -0.00666175
4
Lattice="7.031218 0.0 0.0 0.0 7.031086 0.0 0.0 0.0 3.745874" Properties=species:S:1:pos:R:3:forces:R:3 energy=-11.764148999999861 stress="0.01225676227138215 0.006581813304248384 9.5488398359745e-06 0.006581813304248384 0.015743466048027645 3.672630706144038e-06 9.5488398359745e-06 3.672630706144038e-06 -0.0038136597252599685" pbc="T T T" 
Se      -0.99536043      -2.81041788       1.92624936       0.02632807      -0.03037052      -0.00109418
Se       4.59321436      -3.29206276       0.05361411      -0.03384593       0.01831798      -0.00507328
Se       1.08874636       0.23817849       0.05373418      -0.00650368       0.03678724       0.00104983
Se       2.53328163       0.72218851       1.92810775       0.01360756      -0.02497279      -0.00549059
4
Lattice="7.431218 0.0 0.0 0.0 7.031086 0.0 0.0 0.0 3.745874" Properties=species:S:1:pos:R:3:forces:R:3 energy=-11.60934599999996 stress="0.010961517237092802 0.006029908724882588 2.543296764004746e-05 0.006029908724882588 0.012690408142010109 1.1568786724353718e-05 2.543296764004746e-05 1.1568786724353718e-05 -0.0056946893571792915" pbc="T T T" 
Se      -1.08333386      -2.83673364       1.92975664      -0.00125161      -0.03527034      -0.00126449
Se       4.90004573      -3.28090949       0.05691713      -0.00217099       0.02537350      -0.00017944
Se       1.19930671       0.25123676       0.05731882      -0.01603314       0.03051820      -0.00143972
Se       2.64436207       0.69622053       1.93160684       0.02122261      -0.01953882      -0.00656128
4
Lattice="7.831218 0.0 0.0 0.0 7.031086 0.0 0.0 0.0 3.745874" Properties=species:S:1:pos:R:3:forces:R:3 energy=-11.530299000000014 stress="0.009453902332220675 0.005461385491571491 -0.0001064144747105235 0.005461385491571491 0.010056764662634218 -5.325314523908855e-06 -0.0001064144747105235 -5.325314523908855e-06 -0.008009364859726571" pbc="T T T" 
Se      -1.17461388      -2.86059118       1.93298314       0.01739429      -0.01706161       0.00092321
Se       5.21193372      -3.27198165       0.06075117      -0.02655209       0.00567700      -0.00915732
Se       1.31128375       0.26076499       0.06111828      -0.02144755       0.01560554      -0.00371926
Se       2.75562218       0.67353461       1.93482438       0.02850765      -0.00503016      -0.00131409
4
Lattice="8.231218 0.0 0.0 0.0 7.031086 0.0 0.0 0.0 3.745874" Properties=species:S:1:pos:R:3:forces:R:3 energy=-11.432817999999997 stress="0.008193914552710308 0.0048945149420781585 -6.518919503405667e-06 0.0048945149420781585 0.007691590487877458 -7.620708715248879e-06 -6.518919503405667e-06 -7.620708715248879e-06 -0.010837565950760441" pbc="T T T" 
Se      -1.26736581      -2.87985513       1.93663214       0.02136268      -0.00042151      -0.00347333
Se       5.52673068      -3.26788354       0.06443191      -0.03104715      -0.01018746      -0.00395667
Se       1.42469828       0.26519661       0.06493306       0.00253606       0.00700906      -0.00650893
Se       2.86729032       0.65615800       1.93834058       0.00820030       0.00482902      -0.00522618
4
Lattice="8.631218 0.0 0.0 0.0 7.031086 0.0 0.0 0.0 3.745874" Properties=species:S:1:pos:R:3:forces:R:3 energy=-11.348735999999917 stress="0.006284513848586024 0.003791991204093719 8.171603321170483e-06 0.003791991204093719 0.005291342689877023 1.836315353072019e-07 8.171603321170483e-06 1.836315353072019e-07 -0.020637246463964577" pbc="T T T" 
Se      -1.36538871      -2.90291037       1.94051433      -0.00702281       0.01009474      -0.00499632
Se       5.84691004      -3.26112047       0.06813088      -0.00555510      -0.02303313      -0.00548059
Se       1.55380933       0.27586493       0.06826186      -0.02297975      -0.01733219      -0.00302300
Se       2.96532203       0.63355086       1.94164652       0.03882189       0.03084478      -0.00415015
4
Lattice="9.031218 0.0 0.0 0.0 7.031086 0.0 0.0 0.0 3.745874" Properties=species:S:1:pos:R:3:forces:R:3 energy=-13.04371500000002 stress="-4.4255200009035656e-05 -2.5616599175354663e-05 1.9832205813177803e-05 -2.5616599175354663e-05 0.0056121469820587045 4.939688299763731e-05 1.9832205813177803e-05 4.939688299763731e-05 0.0076327365808115" pbc="T T T" 
Se      -3.83813719      -2.21490909       1.83011762       0.00378760       0.00031879       0.00330778
Se       5.18158194      -3.95943933      -0.03992356       0.00116345       0.01391669      -0.00373813
Se       4.05265815      -0.44226176      -0.04516580      -0.01043385       0.00185629       0.02093272
Se       4.03546525       1.30183292       1.83108441       0.00407571       0.00470440      -0.01274378
4
Lattice="9.431218 0.0 0.0 0.0 7.031086 0.0 0.0 0.0 3.745874" Properties=species:S:1:pos:R:3:forces:R:3 energy=-13.048181999999997 stress="-0.0001921704016989868 2.9197414113845102e-05 -1.3037839006811333e-05 2.9197414113845102e-05 0.005138193989430816 1.377236514804014e-05 -1.3037839006811333e-05 1.377236514804014e-05 0.007079546580698554" pbc="T T T" 
Se      -4.02940167      -2.21314138       1.83285117       0.02588625       0.00201749       0.01382773
Se       5.39289649      -3.95628570      -0.03790594       0.01091140       0.00270657      -0.01098373
Se       4.26683681      -0.44464546      -0.03981904      -0.02532629       0.02440643       0.01146105
Se       4.25740034       1.29970774       1.83529507      -0.01426168      -0.00357499      -0.01451259
4
Lattice="9.831218 0.0 0.0 0.0 7.031086 0.0 0.0 0.0 3.745874" Properties=species:S:1:pos:R:3:forces:R:3 energy=-13.049252999999908 stress="-7.90533759497504e-05 -2.4790257266472257e-05 7.437077179941676e-06 -2.4790257266472257e-05 0.005100733156228146 -2.0107653116138607e-05 7.437077179941676e-06 -2.0107653116138607e-05 0.007045299299363761" pbc="T T T" 
Se      -4.21137146      -2.22054993       1.83826208       0.00141442       0.02381634      -0.00648815
Se       5.61212242      -3.96220524      -0.03577915       0.01247962      -0.00315006       0.00601630
Se       4.47540605      -0.44611823      -0.03335994      -0.00547624       0.02530948      -0.00679568
Se       4.46993240       1.30072171       1.83566984      -0.00896613      -0.02016069       0.00802935
4
Lattice="10.231218 0.0 0.0 0.0 7.031086 0.0 0.0 0.0 3.745874" Properties=species:S:1:pos:R:3:forces:R:3 energy=-13.043439000000035 stress="3.654267552613318e-05 2.8279256437309092e-05 6.335287968098465e-06 2.8279256437309092e-05 0.005381046694874591 7.519711370829917e-05 6.335287968098465e-06 7.519711370829917e-05 0.007220024705208564" pbc="T T T" 
Se      -4.39343887      -2.21850678       1.83944443      -0.00401239      -0.01857674       0.00975181
Se       5.83389093      -3.96752418      -0.02815064      -0.00690539       0.01895764      -0.00860728
Se       4.68714328      -0.45515525      -0.03127256       0.00209211       0.03328129       0.00856018
Se       4.68038315       1.29563702       1.84181932       0.00976130      -0.01504707      -0.00591981
4
Lattice="10.631218 0.0 0.0 0.0 7.031086 0.0 0.0 0.0 3.745874" Properties=species:S:1:pos:R:3:forces:R:3 energy=-13.043492000000015 stress="1.4047812451000945e-05 4.5907883826800474e-07 -2.2953941913400235e-06 4.5907883826800474e-07 0.004856227766966608 8.281782242354805e-05 -2.2953941913400235e-06 8.281782242354805e-05 0.006568132754867997" pbc="T T T" 
Se      -4.57805416      -2.22490071       1.84632423      -0.00797567      -0.01327671      -0.00153649
Se       6.04748841      -3.97097549      -0.02582476       0.00221693       0.02143938       0.00493485
Se       4.90253585      -0.45684289      -0.02470374       0.00673020      -0.01741853      -0.00154549
Se       4.90050739       1.28820653       1.84567387      -0.00009400       0.02347029       0.00555852
4
Lattice="11.031218 0.0 0.0 0.0 7.031086 0.0 0.0 0.0 3.745874" Properties=species:S:1:pos:R:3:forces:R:3 energy=-13.043181999999888 stress="-4.058256930289162e-05 6.417922158986706e-05 2.4790257266472253e-06 6.417922158986706e-05 0.004667270917135496 5.3069513703781346e-05 2.4790257266472253e-06 5.3069513703781346e-05 0.006258254539037094" pbc="T T T" 
Se      -4.76416272      -2.23050686       1.85170807       0.00441682      -0.03068517       0.00612792
Se       6.26471304      -3.97611484      -0.01805112       0.00245862       0.01719045      -0.00105346
Se       5.12192067      -0.46188936      -0.01882237      -0.00521916       0.01434344       0.00577891
Se       5.11885281       1.28233801       1.85305608      -0.00174493       0.00429328      -0.00002368
