2
Lattice="30.0 0.0 0.0 0.0 30.0 0.0 0.0 0.0 30.0" Properties=species:S:1:pos:R:3:forces:R:3 energy=-4.073605999999927 stress="-3.7093570132054786e-05 -3.580814938490437e-05 7.547256101125997e-05 -3.580814938490437e-05 -3.470636017306116e-05 7.299353528461275e-05 7.547256101125997e-05 7.299353528461275e-05 -0.00015397504235508877" pbc="T T T" 
Se      -1.32305001       0.06162201      -0.05376900       1.17088309       1.13315536      -2.38784645
Se      -2.17685301      -0.76458501       1.68669600      -1.17133311      -1.13331462       2.38749094
2
Lattice="30.0 0.0 0.0 0.0 30.0 0.0 0.0 0.0 30.0" Properties=species:S:1:pos:R:3:forces:R:3 energy=-4.216155999999955 stress="-9.181576765360095e-08 -9.181576765360095e-08 9.181576765360095e-08 -9.181576765360095e-08 -9.181576765360095e-08 9.181576765360095e-08 9.181576765360095e-08 9.181576765360095e-08 -2.754473029608028e-07" pbc="T T T" 
Se      -1.30161000       0.08236899      -0.09747399       0.00121199       0.00131419      -0.00224684
Se      -2.19829299      -0.78533199       1.73040099      -0.00168628      -0.00166685       0.00405108
2
Lattice="30.0 0.0 0.0 0.0 30.0 0.0 0.0 0.0 30.0" Properties=species:S:1:pos:R:3:forces:R:3 energy=-4.112101999999936 stress="2.552478340770106e-05 2.4698441498818654e-05 -5.205954025959174e-05 2.4698441498818654e-05 2.3872099589936244e-05 -5.040685644182691e-05 -5.205954025959174e-05 -5.040685644182691e-05 0.00010604721163990909" pbc="T T T" 
Se      -1.28016999       0.10311600      -0.14117901      -0.73395110      -0.71014574       1.49492089
Se      -2.21973300      -0.80607900       1.77410700       0.73348586       0.70978733      -1.49589498
2
Lattice="30.0 0.0 0.0 0.0 30.0 0.0 0.0 0.0 30.0" Properties=species:S:1:pos:R:3:forces:R:3 energy=-3.858496999999943 stress="4.306159502953884e-05 4.168435851473483e-05 -8.77758738768425e-05 4.168435851473483e-05 4.0307121999930814e-05 -8.492958507958088e-05 -8.77758738768425e-05 -8.492958507958088e-05 0.0001788571153892146" pbc="T T T" 
Se      -1.25873001       0.12386301      -0.18488400      -1.18304374      -1.14497110       2.41215623
Se      -2.24117301      -0.82682601       1.81781199       1.18345928       1.14523153      -2.41163458
2
Lattice="30.0 0.0 0.0 0.0 30.0 0.0 0.0 0.0 30.0" Properties=species:S:1:pos:R:3:forces:R:3 energy=-3.51457999999991 stress="5.435493445093176e-05 5.2610434865513336e-05 -0.00011072981579024273 5.2610434865513336e-05 5.086593528009492e-05 -0.00010724081661940591 -0.00011072981579024273 -0.00010724081661940591 0.00022577497266020472" pbc="T T T" 
Se      -1.23729000       0.14460999      -0.22858899      -1.42977276      -1.38394310       2.91408026
Se      -2.26261299      -0.84757299       1.86151701       1.43069969       1.38436172      -2.91686539
2
Lattice="30.0 0.0 0.0 0.0 30.0 0.0 0.0 0.0 30.0" Properties=species:S:1:pos:R:3:forces:R:3 energy=-3.123238000000015 stress="6.114930125729822e-05 5.9221170136572603e-05 -0.00012468581247359006 5.9221170136572603e-05 5.7201223248193386e-05 -0.00012064591869683164 -0.00012468581247359006 -0.00012064591869683164 0.0002541460448651674" pbc="T T T" 
Se      -1.21584999       0.16535700      -0.27229401      -1.54704911      -1.49656252       3.15367460
Se      -2.28405300      -0.86832000       1.90522200       1.54435732       1.49447277      -3.14818408
2
Lattice="30.0 0.0 0.0 0.0 30.0 0.0 0.0 0.0 30.0" Properties=species:S:1:pos:R:3:forces:R:3 energy=-2.7147360000000162 stress="6.509737926640306e-05 6.307743237802385e-05 -0.00013276560002710696 6.307743237802385e-05 6.096566972199103e-05 -0.00012845025894738773 -0.00013276560002710696 -0.00012845025894738773 0.00027048925150750835" pbc="T T T" 
Se      -1.19441001       0.18610401      -0.31599999      -1.58179673      -1.53000519       3.22353919
Se      -2.30549301      -0.88906701       1.94892699       1.58207806       1.53106955      -3.22420346
2
Lattice="30.0 0.0 0.0 0.0 30.0 0.0 0.0 0.0 30.0" Properties=species:S:1:pos:R:3:forces:R:3 energy=-1.9022259999999278 stress="6.684187885182148e-05 6.473011619578867e-05 -0.0001363464149655974 6.473011619578867e-05 6.261835353975584e-05 -0.00013193925811822455 -0.0001363464149655974 -0.00013193925811822455 0.00027783451291979645" pbc="T T T" 
Se      -1.15152999       0.22759800      -0.40341099      -1.50767413      -1.45901081       3.07273032
Se      -2.34837300      -0.93056100       2.03633799       1.50700904       1.45835520      -3.07245555
2
Lattice="30.0 0.0 0.0 0.0 30.0 0.0 0.0 0.0 30.0" Properties=species:S:1:pos:R:3:forces:R:3 energy=-1.1616439999999102 stress="6.271016930740944e-05 6.0782038186683824e-05 -0.00012799118010911972 6.0782038186683824e-05 5.867027553065101e-05 -0.00012385947056470768 -0.00012799118010911972 -0.00012385947056470768 0.00026084859590388027" pbc="T T T" 
Se      -1.10865000       0.26909199      -0.49082199      -1.32056681      -1.27698173       2.69044785
Se      -2.39125299      -0.97205499       2.12374899       1.32047472       1.27824823      -2.69292025
2
Lattice="30.0 0.0 0.0 0.0 30.0 0.0 0.0 0.0 30.0" Properties=species:S:1:pos:R:3:forces:R:3 energy=-0.5349769999999126 stress="5.564035519808217e-05 5.398767138031736e-05 -0.00011357610458750436 5.398767138031736e-05 5.224317179489893e-05 -0.00011008710541666753 -0.00011357610458750436 -0.00011008710541666753 0.00023165118179003516" pbc="T T T" 
Se      -1.06577001       0.31058601      -0.57823299      -1.09904186      -1.06486552       2.24230819
Se      -2.43413301      -1.01354901       2.21115999       1.09931807       1.06413692      -2.24038853
2
Lattice="30.0 0.0 0.0 0.0 30.0 0.0 0.0 0.0 30.0" Properties=species:S:1:pos:R:3:forces:R:3 energy=0.0010220000000344953 stress="4.801964648283329e-05 4.645877843272208e-05 -9.787560831873861e-05 4.645877843272208e-05 4.4806094614957265e-05 -9.466205645086256e-05 -9.787560831873861e-05 -9.466205645086256e-05 0.00019933203157596765" pbc="T T T" 
Se      -1.02288999       0.35208000      -0.66564399      -0.89136052      -0.86215402       1.81700427
Se      -2.47701300      -1.05504300       2.29857099       0.89236865       0.86284691      -1.81756636
2
Lattice="30.0 0.0 0.0 0.0 30.0 0.0 0.0 0.0 30.0" Properties=species:S:1:pos:R:3:forces:R:3 energy=0.42331899999999223 stress="4.1408911211774025e-05 4.0123490464623615e-05 -8.456232200896647e-05 4.0123490464623615e-05 3.87462539498196e-05 -8.180784897935844e-05 -8.456232200896647e-05 -8.180784897935844e-05 0.00017233819588580897" pbc="T T T" 
Se      -0.98001000       0.39357399      -0.75305499      -0.72665755      -0.70298226       1.48143777
Se      -2.51989299      -1.09653699       2.38598199       0.72874780       0.70515286      -1.48548651
2
Lattice="30.0 0.0 0.0 0.0 30.0 0.0 0.0 0.0 30.0" Properties=species:S:1:pos:R:3:forces:R:3 energy=0.82444600000008 stress="2.9381045649152304e-05 2.846288797261629e-05 -6.004751204545502e-05 2.846288797261629e-05 2.754473029608028e-05 -5.81193809247294e-05 -6.004751204545502e-05 -5.81193809247294e-05 0.00012239041828225006" pbc="T T T" 
Se      -0.93713001       0.43506801      -0.84046599      -0.48916092      -0.47367278       0.99778556
Se      -2.56277301      -1.13803101       2.47339299       0.48964660       0.47378927      -0.99840715
2
Lattice="30.0 0.0 0.0 0.0 30.0 0.0 0.0 0.0 30.0" Properties=species:S:1:pos:R:3:forces:R:3 energy=1.2137240000000702 stress="2.2494863075132228e-05 2.1852152701557023e-05 -4.5999699594454075e-05 2.1852152701557023e-05 2.1117626560328216e-05 -4.453064731199646e-05 -4.5999699594454075e-05 -4.453064731199646e-05 9.383571454198016e-05" pbc="T T T" 
Se      -0.85137000       0.51805599      -1.01528700      -0.33940665      -0.32842032       0.69173903
Se      -2.64853401      -1.22101899       2.64821400       0.33929005       0.32834095      -0.69155101
2
Lattice="30.0 0.0 0.0 0.0 30.0 0.0 0.0 0.0 30.0" Properties=species:S:1:pos:R:3:forces:R:3 energy=1.4534210000000485 stress="9.457024068320897e-06 9.273392533013696e-06 -1.94649427425634e-05 9.273392533013696e-06 8.906129462399291e-06 -1.8822232368988194e-05 -1.94649427425634e-05 -1.8822232368988194e-05 3.9572595858702006e-05" pbc="T T T" 
Se      -0.76560999       0.60104499      -1.19010801      -0.13096733      -0.12675177       0.26695956
Se      -2.73429501      -1.30400700       2.82303501       0.13092359       0.12669922      -0.26687958
2
Lattice="30.0 0.0 0.0 0.0 30.0 0.0 0.0 0.0 30.0" Properties=species:S:1:pos:R:3:forces:R:3 energy=1.5656060000000025 stress="2.387209958993625e-06 2.387209958993625e-06 -4.958051453294451e-06 2.387209958993625e-06 2.2035784236864225e-06 -4.86623568564085e-06 -4.958051453294451e-06 -4.86623568564085e-06 1.0099734441896105e-05" pbc="T T T" 
Se      -0.67985001       0.68403300      -1.36493001      -0.03084375      -0.02984547       0.06287597
Se      -2.82005499      -1.38699501       2.99785599       0.03084344       0.02983665      -0.06287716
2
Lattice="30.0 0.0 0.0 0.0 30.0 0.0 0.0 0.0 30.0" Properties=species:S:1:pos:R:3:forces:R:3 energy=1.5921339999999873 stress="9.181576765360095e-08 9.181576765360095e-08 -1.836315353072019e-07 9.181576765360095e-08 9.181576765360095e-08 -1.836315353072019e-07 -1.836315353072019e-07 -1.836315353072019e-07 3.672630706144038e-07" pbc="T T T" 
Se      -0.59409000       0.76702101      -1.53975201      -0.00130373      -0.00125604       0.00265531
Se      -2.90581500      -1.46998299       3.17267799       0.00130013       0.00124968      -0.00265322
2
Lattice="30.0 0.0 0.0 0.0 30.0 0.0 0.0 0.0 30.0" Properties=species:S:1:pos:R:3:forces:R:3 energy=1.5800090000000182 stress="0.0 9.181576765360095e-08 -9.181576765360095e-08 9.181576765360095e-08 0.0 -9.181576765360095e-08 -9.181576765360095e-08 -9.181576765360095e-08 1.836315353072019e-07" pbc="T T T" 
Se      -0.50832999       0.85001001      -1.71457401      -0.00073852      -0.00070937       0.00149417
Se      -2.99157501      -1.55297199       3.34749999       0.00073577       0.00070235      -0.00149759
2
Lattice="30.0 0.0 0.0 0.0 30.0 0.0 0.0 0.0 30.0" Properties=species:S:1:pos:R:3:forces:R:3 energy=1.5806210000000647 stress="-0.0 0.0 -9.181576765360095e-08 0.0 -0.0 -9.181576765360095e-08 -9.181576765360095e-08 -9.181576765360095e-08 9.181576765360095e-08" pbc="T T T" 
Se      -0.42257001       0.93299799      -1.88939601      -0.00046128      -0.00044822       0.00093115
Se      -3.07733499      -1.63596000       3.52232199       0.00046362       0.00044161      -0.00094164
2
Lattice="30.0 0.0 0.0 0.0 30.0 0.0 0.0 0.0 30.0" Properties=species:S:1:pos:R:3:forces:R:3 energy=1.581009999999992 stress="-0.0 0.0 -9.181576765360095e-08 0.0 -0.0 -9.181576765360095e-08 -9.181576765360095e-08 -9.181576765360095e-08 9.181576765360095e-08" pbc="T T T" 
Se      -0.33681000       1.01598699      -2.06421801      -0.00029442      -0.00029431       0.00059979
Se      -3.16309500      -1.71894801       3.69714399       0.00029658       0.00028814      -0.00060426
2
Lattice="30.0 0.0 0.0 0.0 30.0 0.0 0.0 0.0 30.0" Properties=species:S:1:pos:R:3:forces:R:3 energy=1.5812640000000329 stress="-0.0 0.0 -0.0 0.0 -0.0 -0.0 -0.0 -0.0 0.0" pbc="T T T" 
Se      -0.25104999       1.09897500      -2.23904001      -0.00019612      -0.00019528       0.00039816
Se      -3.24885501      -1.80193701       3.87196599       0.00019628       0.00019198      -0.00040086
