2
Lattice="3.095111 0.0 0.0 0.0 3.095111 0.0 0.0 0.0 3.095111" Properties=species:S:1:pos:R:3:forces:R:3 energy=-9.631709 stress="-0.14366881425173975 -0.0 0.0 -0.0 -0.14366881425173975 -0.0 0.0 -0.0 -0.14366881425173975" pbc="T T T" 
Mo       0.00000000       0.00000000       0.00000000       0.00000000       0.00000000      -0.00000000
Mo       1.54755550       1.54755550       1.54755550       0.00000000       0.00000000       0.00000000
2
Lattice="3.115111 0.0 0.0 0.0 3.115111 0.0 0.0 0.0 3.115111" Properties=species:S:1:pos:R:3:forces:R:3 energy=-9.657851999999991 stress="-0.10114296422645966 -0.0 0.0 -0.0 -0.10114296422645966 -0.0 0.0 -0.0 -0.10114296422645966" pbc="T T T" 
Mo       0.00000000       0.00000000       0.00000000       0.00000000       0.00000000      -0.00000000
Mo       1.55755550       1.55755550       1.55755550      -0.00000000       0.00000000       0.00000000
2
Lattice="3.135111 0.0 0.0 0.0 3.135111 0.0 0.0 0.0 3.135111" Properties=species:S:1:pos:R:3:forces:R:3 energy=-9.705129 stress="-0.06346425220714846 0.0 0.0 0.0 -0.06346425220714846 -0.0 0.0 -0.0 -0.06346425220714846" pbc="T T T" 
Mo       0.00000000       0.00000000       0.00000000      -0.00000000       0.00000000      -0.00000000
Mo       1.56755550       1.56755550       1.56755550      -0.00000000       0.00000000       0.00000000
2
Lattice="3.155111 0.0 0.0 0.0 3.155111 0.0 0.0 0.0 3.155111" Properties=species:S:1:pos:R:3:forces:R:3 energy=-9.777520999999979 stress="-0.03442237400370857 0.0 0.0 0.0 -0.03442237400370857 -0.0 0.0 -0.0 -0.03442237400370857" pbc="T T T" 
Mo       0.00000000       0.00000000       0.00000000       0.00000000      -0.00000000       0.00000000
Mo       1.57755550       1.57755550       1.57755550       0.00000000      -0.00000000      -0.00000000
2
Lattice="3.175111 0.0 0.0 0.0 3.175111 0.0 0.0 0.0 3.175111" Properties=species:S:1:pos:R:3:forces:R:3 energy=-9.790272000000016 stress="-0.004418174739491278 -0.0 -0.0 -0.0 -0.004418174739491278 0.0 -0.0 0.0 -0.004418174739491278" pbc="T T T" 
Mo       0.00000000       0.00000000       0.00000000      -0.00000000       0.00000000      -0.00000000
Mo       1.58755550       1.58755550       1.58755550      -0.00000000      -0.00000000       0.00000000
2
Lattice="3.195111 0.0 0.0 0.0 3.195111 0.0 0.0 0.0 3.195111" Properties=species:S:1:pos:R:3:forces:R:3 energy=-9.78247799999997 stress="0.029744177010222295 0.0 -0.0 0.0 0.029744177010222295 -0.0 -0.0 -0.0 0.029744177010222295" pbc="T T T" 
Mo       0.00000000       0.00000000       0.00000000      -0.00000000      -0.00000000      -0.00000000
Mo       1.59755550       1.59755550       1.59755550       0.00000000       0.00000000       0.00000000
2
Lattice="3.215111 0.0 0.0 0.0 3.215111 0.0 0.0 0.0 3.215111" Properties=species:S:1:pos:R:3:forces:R:3 energy=-9.756745999999964 stress="0.050688547216988164 0.0 -0.0 0.0 0.050688547216988164 -0.0 -0.0 -0.0 0.050688547216988164" pbc="T T T" 
Mo       0.00000000       0.00000000       0.00000000       0.00000000       0.00000000       0.00000000
Mo       1.60755550       1.60755550       1.60755550      -0.00000000       0.00000000       0.00000000
2
Lattice="3.235111 0.0 0.0 0.0 3.235111 0.0 0.0 0.0 3.235111" Properties=species:S:1:pos:R:3:forces:R:3 energy=-9.716603999999961 stress="0.07692765729703424 -0.0 0.0 -0.0 0.07692765729703424 0.0 0.0 0.0 0.07692765729703424" pbc="T T T" 
Mo       0.00000000       0.00000000       0.00000000      -0.00000000       0.00000000       0.00000000
Mo       1.61755550       1.61755550       1.61755550      -0.00000000      -0.00000000      -0.00000000
2
Lattice="3.255111 0.0 0.0 0.0 3.255111 0.0 0.0 0.0 3.255111" Properties=species:S:1:pos:R:3:forces:R:3 energy=-9.608916999999963 stress="0.09897133768991669 0.0 0.0 0.0 0.09897133768991669 0.0 0.0 0.0 0.09897133768991669" pbc="T T T" 
Mo       0.00000000       0.00000000       0.00000000       0.00000000      -0.00000000       0.00000000
Mo       1.62755550       1.62755550       1.62755550      -0.00000000      -0.00000000      -0.00000000
2
Lattice="3.275111 0.0 0.0 0.0 3.275111 0.0 0.0 0.0 3.275111" Properties=species:S:1:pos:R:3:forces:R:3 energy=-9.589878999999996 stress="0.11839927867811569 -0.0 0.0 -0.0 0.11839927867811569 0.0 0.0 0.0 0.11839927867811569" pbc="T T T" 
Mo       0.00000000       0.00000000       0.00000000      -0.00000000       0.00000000       0.00000000
Mo       1.63755550       1.63755550       1.63755550       0.00000000      -0.00000000      -0.00000000
2
Lattice="3.295111 0.0 0.0 0.0 3.295111 0.0 0.0 0.0 3.295111" Properties=species:S:1:pos:R:3:forces:R:3 energy=-9.508324000000016 stress="0.13026114133281969 0.0 -0.0 0.0 0.13026114133281969 0.0 -0.0 0.0 0.13026114133281969" pbc="T T T" 
Mo       0.00000000       0.00000000       0.00000000      -0.00000000       0.00000000      -0.00000000
Mo       1.64755550       1.64755550       1.64755550       0.00000000       0.00000000      -0.00000000
