3
Lattice="3.03027 -1.515134 0.0 0.0 2.624278 0.0 0.0 0.0 30.0" Properties=species:S:1:pos:R:3:forces:R:3 energy=-10.266287000000034 stress="-0.05746767260592414 0.013804317035183594 3.470636017306116e-05 0.013804317035183594 -0.056554472980841416 8.906129462399291e-06 3.470636017306116e-05 8.906129462399291e-06 -0.058969686748969394" pbc="T T T" 
Mo       0.18198491       2.07650814       3.24066627       1.26955970       0.48270787      -0.00981048
Se       1.42401521       0.70997603       5.19226899      -0.63595925      -0.24433218       4.16523317
Se       1.42433606       0.70812046       1.29235986      -0.63133841      -0.24409927      -4.16019816
3
Lattice="3.097609 -1.548804 0.0 0.0 2.682596 0.0 0.0 0.0 30.0" Properties=species:S:1:pos:R:3:forces:R:3 energy=-10.79878599999995 stress="-0.043129814144905465 0.012843832289759275 5.7201223248193386e-05 0.012843832289759275 -0.042065026687426656 5.876209129830461e-06 5.7201223248193386e-05 5.876209129830461e-06 -0.04480875727221922" pbc="T T T" 
Mo       0.20657907       2.11818903       3.24466722       1.19721325       0.55274328      -0.00998835
Se       1.44425604       0.72777201       5.11334406      -0.60260420      -0.26866284       3.30536764
Se       1.44421846       0.72781632       1.37625474      -0.59559967      -0.26723537      -3.29708570
3
Lattice="3.164949 -1.582473 0.0 0.0 2.740913 0.0 0.0 0.0 30.0" Properties=species:S:1:pos:R:3:forces:R:3 energy=-11.195284000000015 stress="0.007536146393239912 -0.004320390946940192 1.7812258924798582e-05 -0.004320390946940192 -0.06032672379488962 -1.1201523653739316e-05 1.7812258924798582e-05 -1.1201523653739316e-05 0.00031814163491972723" pbc="T T T" 
Mo       0.24592922       2.15964362       3.24386361       0.02401804      -0.01060968      -0.00071695
Se       1.45917507       0.74766092       5.02806252      -0.00773601       0.00146406      -0.02305606
Se       1.45903616       0.74763296       1.46020968      -0.00834441       0.00021950       0.02479127
3
Lattice="3.232288 -1.616143 0.0 0.0 2.79923 0.0 0.0 0.0 30.0" Properties=species:S:1:pos:R:3:forces:R:3 energy=-11.464354999999955 stress="-0.019129356111789488 0.011378269006472496 7.069814109327273e-06 0.011378269006472496 -0.01871150255319795 -0.0 7.069814109327273e-06 -0.0 -0.024751327380987127" pbc="T T T" 
Mo       0.27760976       2.19911990       3.24557067       1.10649240       0.74417820      -0.00492935
Se       1.47870649       0.76646778       4.96311543      -0.55419377      -0.37231582       1.98976041
Se       1.47852810       0.76655983       1.52505231      -0.55367227      -0.37308787      -1.97838484
3
Lattice="3.299627 -1.649812 0.0 0.0 2.857547 0.0 0.0 0.0 30.0" Properties=species:S:1:pos:R:3:forces:R:3 energy=-11.626607000000035 stress="-0.010215514124907295 0.010964363525890064 -1.3129654774464934e-05 0.010964363525890064 -0.01051373173824619 2.6534756851890673e-05 -1.3129654774464934e-05 2.6534756851890673e-05 -0.016465597060623217" pbc="T T T" 
Mo       0.28869777       2.24626663       3.24450495       1.03705721       0.84114294      -0.00354637
Se       1.50537198       0.78268498       4.93199157      -0.51596401      -0.41985436       1.38150024
Se       1.50527963       0.78308688       1.55687280      -0.51715710      -0.41646565      -1.37419358
3
Lattice="3.366967 -1.683482 0.0 0.0 2.915865 0.0 0.0 0.0 30.0" Properties=species:S:1:pos:R:3:forces:R:3 energy=-11.705471999999986 stress="-0.0024883909349478926 0.009903707777955666 -2.8371072204962688e-05 0.009903707777955666 -0.0038315637999524208 1.5057785895190556e-05 -2.8371072204962688e-05 1.5057785895190556e-05 -0.009663058650935577" pbc="T T T" 
Mo       0.30057156       2.29039996       3.24430107       0.94843164       0.85184128      -0.00243936
Se       1.53289053       0.79964764       4.90324017      -0.47484901      -0.42278151       0.83891418
Se       1.53289816       0.80005036       1.58561883      -0.47762976      -0.41901567      -0.83537637
3
Lattice="3.434306 -1.717152 0.0 0.0 2.974182 0.0 0.0 0.0 30.0" Properties=species:S:1:pos:R:3:forces:R:3 energy=-11.704942999999957 stress="0.0040884643178471965 0.008458343963552679 3.121736100222432e-06 0.008458343963552679 0.00209743939627886 3.3053676355296338e-06 3.121736100222432e-06 3.3053676355296338e-06 -0.004499890772702983" pbc="T T T" 
Mo       0.31223287       2.33560414       3.24373218       0.84602148       0.83348085      -0.00263662
Se       1.56034347       0.81568527       4.88130234      -0.42257937      -0.41547050       0.40516796
Se       1.56047739       0.81577867       1.60609023      -0.42138510      -0.41455411      -0.40284330
3
Lattice="3.501645 -1.750821 0.0 0.0 3.032499 0.0 0.0 0.0 30.0" Properties=species:S:1:pos:R:3:forces:R:3 energy=-11.627192000000036 stress="0.009623118792006263 0.00792902606302967 1.2211497097928926e-05 0.00792902606302967 0.007054572691896775 -4.039893776758441e-06 1.2211497097928926e-05 -4.039893776758441e-06 -0.00036221320339345573" pbc="T T T" 
Mo       0.32707570       2.37909932       3.24294534       0.75631851       0.87899020      -0.00655590
Se       1.58769344       0.82959731       4.86143232      -0.37794805      -0.44590903       0.02791398
Se       1.58795927       0.82988117       1.62349530      -0.37592601      -0.44400217      -0.02783574
3
Lattice="3.568985 -1.784491 0.0 0.0 3.090817 0.0 0.0 0.0 30.0" Properties=species:S:1:pos:R:3:forces:R:3 energy=-11.499372999999991 stress="0.014756354729983783 0.00593919474644083 5.325314523908855e-06 0.00593919474644083 0.010628685079348499 2.7820177599041086e-05 5.325314523908855e-06 2.7820177599041086e-05 0.0027475868470340082" pbc="T T T" 
Mo       0.34213225       2.42644706       3.24387336       0.65557947       0.88477007      -0.00037641
Se       1.61392579       0.84782851       4.84419609      -0.32517161      -0.44164133      -0.27467082
Se       1.61413229       0.84737516       1.64289345      -0.32718432      -0.44033408       0.27745668
3
Lattice="3.636324 -1.818161 0.0 0.0 3.149134 0.0 0.0 0.0 30.0" Properties=species:S:1:pos:R:3:forces:R:3 energy=-11.317129000000023 stress="0.018630796493430433 0.004412941240735022 3.305367635529634e-05 0.004412941240735022 0.013455325302332257 -2.0015837348485005e-05 3.305367635529634e-05 -2.0015837348485005e-05 0.005379394011056826" pbc="T T T" 
Mo       0.35990048       2.47081695       3.24382455       0.55048583       0.88889512      -0.00068561
Se       1.63670440       0.86280697       4.82902158      -0.28161889      -0.44341333      -0.54747848
Se       1.63706548       0.86259752       1.65965697      -0.27492456      -0.44671365       0.54894607
3
Lattice="3.703663 -1.85183 0.0 0.0 3.207451 0.0 0.0 0.0 30.0" Properties=species:S:1:pos:R:3:forces:R:3 energy=-11.091699999999946 stress="0.02188483911484171 0.0029202004902227777 -1.450689128926895e-05 0.0029202004902227777 0.015568832457950498 2.754473029608028e-06 -1.450689128926895e-05 2.754473029608028e-06 0.007236643359153866" pbc="T T T" 
Mo       0.38654128       2.51703865       3.24314760       0.47257630       0.91034031       0.00267521
Se       1.66150073       0.87705900       4.81335411      -0.23082615      -0.45948335      -0.77704909
Se       1.66016496       0.87707301       1.67244222      -0.23532916      -0.45859045       0.77133175
