283
Lattice="23.38722852 0.0 0.0 0.0 40.52994239 0.0 0.0 0.0 30.0" Properties=species:S:1:pos:R:3:forces:R:3 energy=-1338.0979579999912 stress="0.004454 -0.0 -4.8e-05 -0.0 0.003761 -0.0 -4.8e-05 -0.0 0.00267" pbc="T T T" 
Mo       0.48733162       0.84437381      15.00000000      -0.00822500      -0.00000000       0.00004900
Se       2.43625717       0.84437387      16.70000000      -0.00537800      -0.00000100      -0.23246600
Se       2.43625698       0.84437387      13.30000000      -0.00542500      -0.00000100       0.23238100
Mo       3.41075944       2.53312133      15.00000000       0.00340300      -0.00014700       0.00011500
Se       5.35947551       2.53312139      16.70000000      -0.00545500      -0.00000300      -0.22382800
Se       5.35947502       2.53312139      13.30000000      -0.00551500       0.00014300       0.22391800
Mo       0.48733162       4.22186900      15.00000000      -0.00835700      -0.00025200       0.00003800
Se       2.43625717       4.22186907      16.70000000      -0.00541000       0.00016500      -0.23254300
Se       2.43625698       4.22186907      13.30000000      -0.00537600       0.00014500       0.23235400
Mo       3.41075944       5.91061652      15.00000000       0.00350400      -0.00026800       0.00022400
Se       5.35947551       5.91061659      16.70000000      -0.00571400       0.00028500      -0.22340200
Se       5.35947502       5.91061659      13.30000000      -0.00546600       0.00046300       0.22411800
Mo       0.48733162       7.59936420      15.00000000      -0.00812500      -0.00025200       0.00010000
Se       2.43625717       7.59936427      16.70000000      -0.00526200       0.00048000      -0.23226600
Se       2.43625698       7.59936427      13.30000000      -0.00497800       0.00038600       0.23217700
Mo       3.41075944       9.28811172      15.00000000       0.00156700      -0.00282500      -0.00000000
Se       5.35947551       9.28811179      16.70000000      -0.00664100       0.00196600      -0.22320800
Se       5.35947502       9.28811179      13.30000000      -0.00487000       0.00113000       0.22368000
Mo       0.48733162      10.97685940      15.00000000      -0.01090400      -0.00107100      -0.00068700
Se       2.43625717      10.97685947      16.70000000      -0.00293100       0.00049600      -0.23131400
Se       2.43625698      10.97685947      13.30000000      -0.00412500       0.00073900       0.23269800
Mo       3.41075944      12.66560692      15.00000000      -0.00096500      -0.00381800      -0.00080400
Se       5.35947551      12.66560699      16.70000000      -0.00534500       0.00208400      -0.22416200
Se       5.35947502      12.66560699      13.30000000      -0.00374800       0.00177200       0.22395700
Mo       0.48733162      14.35435460      15.00000000      -0.01575900      -0.00194700      -0.00157500
Se       2.43625717      14.35435467      16.70000000      -0.00110900       0.00039400      -0.23154400
Se       2.43625698      14.35435467      13.30000000      -0.00225800       0.00095600       0.23259900
Mo       3.41075944      16.04310212      15.00000000      -0.00388100      -0.00353000      -0.00257000
Se       5.35947551      16.04310219      16.70000000      -0.00282300       0.00239300      -0.22442700
Se       5.35947502      16.04310219      13.30000000      -0.00172900       0.00127200       0.22491700
Mo       0.48733162      17.73184980      15.00000000      -0.01846600      -0.00044600      -0.00234400
Se       2.43625717      17.73184987      16.70000000       0.00063300       0.00045500      -0.23081200
Se       2.43625698      17.73184987      13.30000000      -0.00126100       0.00043100       0.23319100
Mo       3.41075944      19.42059732      15.00000000      -0.00571500      -0.00093400      -0.00315600
Se       5.35947551      19.42059739      16.70000000      -0.00274600       0.00051400      -0.22428600
Se       5.35947502      19.42059739      13.30000000      -0.00088500       0.00055200       0.22432200
Mo       6.33413875       0.84437381      15.00000000      -0.00996200      -0.00000000       0.00012000
Se       8.28306430       0.84437387      16.70000000       0.01341600      -0.00000100      -0.22355000
Se       8.28306411       0.84437387      13.30000000       0.01380800      -0.00000100       0.22367500
Mo       9.25756657       2.53312133      15.00000000      -0.00837200       0.00044300      -0.00019300
Se      11.20628264       2.53312139      16.70000000       0.01077300      -0.00023600      -0.22890400
Se      11.20628215       2.53312139      13.30000000       0.01052200       0.00001000       0.22949600
Mo       6.33413875       4.22186900      15.00000000      -0.00975300       0.00002600      -0.00023600
Se       8.28306430       4.22186907      16.70000000       0.01345600       0.00003000      -0.22359700
Se       8.28306411       4.22186907      13.30000000       0.01341100      -0.00025300       0.22348500
Mo       9.25756657       5.91061652      15.00000000      -0.00765000       0.00134300      -0.00210800
Se      11.20628264       5.91061659      16.70000000       0.01028500      -0.00060300      -0.23063000
Se      11.20628215       5.91061659      13.30000000       0.01108000      -0.00208900       0.22872100
Mo       6.33413875       7.59936420      15.00000000      -0.01062800      -0.00062000      -0.00113400
Se       8.28306430       7.59936427      16.70000000       0.01343700       0.00042300      -0.22546700
Se       8.28306411       7.59936427      13.30000000       0.01095500      -0.00049100       0.22269000
Mo       9.25756657       9.28811172      15.00000000      -0.01418900       0.00484800       0.00787000
Se      11.20628264       9.28811179      16.70000000       0.00538800      -0.01127800      -0.22537500
Se      11.20628215       9.28811179      13.30000000       0.00119500      -0.01740200       0.24107600
Mo       6.33413875      10.97685940      15.00000000      -0.00720800      -0.01369900       0.00028100
Se       8.28306430      10.97685947      16.70000000       0.01259100      -0.00089400      -0.21598700
Se       8.28306411      10.97685947      13.30000000       0.00447800       0.00706700       0.21561200
Mo       9.25756657      12.66560692      15.00000000      -0.14383200      -0.05315600      -0.01781200
Se      11.20628264      12.66560699      16.70000000       0.36568500       0.16041000      -0.22630200
Se      11.20628215      12.66560699      13.30000000       0.03707200       0.16098100       0.22798800
Mo       6.33413875      14.35435460      15.00000000      -0.00172300      -0.01472300       0.00723500
Se       8.28306430      14.35435467      16.70000000      -0.01379600       0.00259900      -0.21031800
Se       8.28306411      14.35435467      13.30000000       0.04818700       0.00956300       0.23932100
Mo       9.25756657      16.04310212      15.00000000      -0.29115000       0.00376400      -0.08354700
Se      11.20628264      16.04310219      16.70000000       0.82712100       0.01987000      -0.18389700
Se      11.20628215      16.04310219      13.30000000       0.03347300      -0.03260100       0.24993600
Mo       6.33413875      17.73184980      15.00000000       0.00288900      -0.00171000       0.00812700
Se       8.28306430      17.73184987      16.70000000      -0.01686900       0.00647000      -0.19189700
Se       8.28306411      17.73184987      13.30000000       0.05088600      -0.00048700       0.24077200
Mo       9.25756657      19.42059732      15.00000000      -0.30866700      -0.00561500      -0.09446300
Se      11.20628264      19.42059739      16.70000000       0.83358600       0.00971400      -0.16971500
Se      11.20628215      19.42059739      13.30000000       0.00953900      -0.00071500       0.24773600
Mo      12.18094588       0.84437381      15.00000000      -0.00832700      -0.00000000       0.00002900
Se      14.12987143       0.84437387      16.70000000      -0.00473700      -0.00000100      -0.23233600
Se      14.12987124       0.84437387      13.30000000      -0.00484100      -0.00000100       0.23238700
Mo      15.10437370       2.53312133      15.00000000       0.00159800      -0.00043900      -0.00015400
Se      17.05308977       2.53312139      16.70000000      -0.00519000       0.00052200      -0.22365000
Se      17.05308928       2.53312139      13.30000000      -0.00492700       0.00022600       0.22380200
Mo      12.18094588       4.22186900      15.00000000      -0.00751200       0.00033300      -0.00063900
Se      14.12987143       4.22186907      16.70000000      -0.00365500      -0.00027900      -0.23186000
Se      14.12987124       4.22186907      13.30000000      -0.00481300      -0.00011400       0.23167400
Mo      15.10437370       5.91061652      15.00000000      -0.00876800      -0.00032900       0.00015700
Se      17.05308977       5.91061659      16.70000000      -0.00542900       0.00064600      -0.22386700
Se      17.05308928       5.91061659      13.30000000      -0.00400500      -0.00047300       0.22420100
Mo      12.18094588       7.59936420      15.00000000      -0.00024400       0.00021000       0.01148000
Se      14.12987143       7.59936427      16.70000000      -0.00423500      -0.00241000      -0.22456300
Se      14.12987124       7.59936427      13.30000000       0.00597100      -0.00342300       0.22177900
Mo      15.10437370       9.28811172      15.00000000       0.00329600      -0.13460300      -0.00640200
Se      17.05308977       9.28811179      16.70000000       0.00630100      -0.02320100      -0.22930800
Se      17.05308928       9.28811179      13.30000000      -0.01754400       0.02442100       0.23939400
Mo      12.18094588      10.97685940      15.00000000       0.13405400       0.23776800       0.06017000
Se      14.12987143      10.97685947      16.70000000      -0.03862200       0.36962300      -0.22385700
Se      14.12987124      10.97685947      13.30000000       0.15966000       0.12254800       0.22777200
Mo      15.10437370      12.66560692      15.00000000      -0.27390400       0.23144400      -0.31315600
Se      17.05308977      12.66560699      16.70000000      -0.28682800       0.21373700      -0.22739600
Se      17.05308928      12.66560699      13.30000000      -0.18122700      -0.03058800       0.24913900
Mo      12.18094588      14.35435460      15.00000000       0.47182200       0.12824400      -0.36839300
Se      14.12987124      14.35435467      13.30000000       0.14168900       0.08194400       0.80745000
Mo      15.10437370      16.04310212      15.00000000      -0.24304500      -0.05867500      -0.58201600
Se      17.05308977      16.04310219      16.70000000      -0.74791400      -0.00581700      -0.30818500
Se      17.05308928      16.04310219      13.30000000      -0.45084400       0.03829800       0.27101100
Mo      12.18094588      17.73184980      15.00000000       0.59991100       0.00540700      -0.38832000
Se      14.12987124      17.73184987      13.30000000       0.28533700      -0.01656600       0.88687700
Mo      15.10437370      19.42059732      15.00000000      -0.27460700      -0.00288200      -0.53153000
Se      17.05308977      19.42059739      16.70000000      -0.73446500      -0.00357600      -0.32019800
Se      17.05308928      19.42059739      13.30000000      -0.44075300      -0.00344800       0.29514700
Mo      18.02775301       0.84437381      15.00000000      -0.01059500      -0.00000000       0.00006300
Se      19.97667856       0.84437387      16.70000000       0.01371700      -0.00000100      -0.22356300
Se      19.97667837       0.84437387      13.30000000       0.01364900      -0.00000100       0.22357600
Mo      20.95118083       2.53312133      15.00000000      -0.00849300      -0.00047000      -0.00002500
Se      22.89989690       2.53312139      16.70000000       0.01039100       0.00004300      -0.22929800
Se      22.89989641       2.53312139      13.30000000       0.01025600       0.00007700       0.22929300
Mo      18.02775301       4.22186900      15.00000000      -0.01061000       0.00018700      -0.00054600
Se      19.97667856       4.22186907      16.70000000       0.01367100       0.00021600      -0.22374800
Se      19.97667837       4.22186907      13.30000000       0.01355400       0.00021400       0.22371700
Mo      20.95118083       5.91061652      15.00000000      -0.00811900      -0.00036600      -0.00067900
Se      22.89989690       5.91061659      16.70000000       0.01014300       0.00035300      -0.22895100
Se      22.89989641       5.91061659      13.30000000       0.01014600       0.00006400       0.22924900
Mo      18.02775301       7.59936420      15.00000000      -0.01486100       0.00776300       0.00301300
Se      19.97667856       7.59936427      16.70000000       0.01345100      -0.00021100      -0.22389900
Se      19.97667837       7.59936427      13.30000000       0.01372900      -0.00120900       0.22446600
Mo      20.95118083       9.28811172      15.00000000      -0.00318900       0.01120600       0.00040600
Se      22.89989690       9.28811179      16.70000000       0.01107600      -0.00157900      -0.22923500
Se      22.89989641       9.28811179      13.30000000       0.01105200      -0.00006100       0.22857200
Mo      18.02775301      10.97685940      15.00000000       0.09079300      -0.07053400      -0.00153400
Se      19.97667856      10.97685947      16.70000000       0.01759300      -0.00309900      -0.21825600
Se      19.97667837      10.97685947      13.30000000       0.01015400      -0.01602100       0.21453300
Mo      20.95118083      12.66560692      15.00000000      -0.01020700       0.01018000       0.01476700
Se      22.89989690      12.66560699      16.70000000       0.01308800      -0.00191900      -0.23080200
Se      22.89989641      12.66560699      13.30000000       0.01305100      -0.00195300       0.22733400
Mo      18.02775301      14.35435460      15.00000000      -0.16292000      -0.16481700       0.04772800
Se      19.97667856      14.35435467      16.70000000       0.04056800      -0.00822000      -0.21768400
Se      19.97667837      14.35435467      13.30000000       0.02898500      -0.01208000       0.22271000
Mo      20.95118083      16.04310212      15.00000000      -0.02133900       0.01639600       0.02829300
Se      22.89989690      16.04310219      16.70000000       0.01455300      -0.00173600      -0.23285900
Se      22.89989641      16.04310219      13.30000000       0.01586200      -0.00017300       0.22703700
Mo      18.02775301      17.73184980      15.00000000      -0.03951400       0.00435700       0.03253700
Se      19.97667856      17.73184987      16.70000000       0.05403500      -0.00250600      -0.21599200
Se      19.97667837      17.73184987      13.30000000       0.02448400      -0.00472700       0.20831000
Mo      20.95118083      19.42059732      15.00000000      -0.01737600       0.00175100       0.03059500
Se      22.89989690      19.42059739      16.70000000       0.01523200       0.00005700      -0.23193300
Se      22.89989641      19.42059739      13.30000000       0.01614900      -0.00010800       0.22621600
Mo       0.48733162      21.10934500      15.00000000      -0.01844000      -0.00000000      -0.00203300
Se       2.43625717      21.10934507      16.70000000       0.00138300      -0.00000100      -0.23058100
Se       2.43625698      21.10934507      13.30000000      -0.00086300      -0.00000100       0.23327700
Mo       3.41075944      22.79809252      15.00000000      -0.00571500       0.00094000      -0.00315600
Se       5.35947551      22.79809259      16.70000000      -0.00274600      -0.00051400      -0.22428600
Se       5.35947502      22.79809259      13.30000000      -0.00088500      -0.00055200       0.22432200
Mo       0.48733162      24.48684020      15.00000000      -0.01846600       0.00044600      -0.00234400
Se       2.43625717      24.48684027      16.70000000       0.00063300      -0.00045800      -0.23081200
Se       2.43625698      24.48684027      13.30000000      -0.00126100      -0.00043300       0.23319100
Mo       3.41075944      26.17558772      15.00000000      -0.00388100       0.00353500      -0.00257000
Se       5.35947551      26.17558779      16.70000000      -0.00282300      -0.00239300      -0.22442700
Se       5.35947502      26.17558779      13.30000000      -0.00172900      -0.00127200       0.22491700
Mo       0.48733162      27.86433540      15.00000000      -0.01575900       0.00194600      -0.00157500
Se       2.43625717      27.86433547      16.70000000      -0.00110900      -0.00039700      -0.23154400
Se       2.43625698      27.86433547      13.30000000      -0.00225800      -0.00095800       0.23259900
Mo       3.41075944      29.55308292      15.00000000      -0.00096500       0.00382300      -0.00080400
Se       5.35947551      29.55308299      16.70000000      -0.00534500      -0.00208400      -0.22416200
Se       5.35947502      29.55308299      13.30000000      -0.00374800      -0.00177200       0.22395700
Mo       0.48733162      31.24183060      15.00000000      -0.01090400       0.00107100      -0.00068700
Se       2.43625717      31.24183066      16.70000000      -0.00293100      -0.00049800      -0.23131400
Se       2.43625698      31.24183066      13.30000000      -0.00412500      -0.00074100       0.23269800
Mo       3.41075944      32.93057812      15.00000000       0.00156700       0.00283000      -0.00000000
Se       5.35947551      32.93057819      16.70000000      -0.00664100      -0.00196600      -0.22320800
Se       5.35947502      32.93057819      13.30000000      -0.00487000      -0.00113000       0.22368000
Mo       0.48733162      34.61932579      15.00000000      -0.00812500       0.00025200       0.00010000
Se       2.43625717      34.61932586      16.70000000      -0.00526200      -0.00048300      -0.23226600
Se       2.43625698      34.61932586      13.30000000      -0.00497800      -0.00038800       0.23217700
Mo       3.41075944      36.30807332      15.00000000       0.00350300       0.00027300       0.00022400
Se       5.35947551      36.30807338      16.70000000      -0.00571400      -0.00028500      -0.22340200
Se       5.35947502      36.30807338      13.30000000      -0.00546600      -0.00046300       0.22411800
Mo       0.48733162      37.99682099      15.00000000      -0.00835600       0.00025200       0.00003800
Se       2.43625717      37.99682106      16.70000000      -0.00541000      -0.00016700      -0.23254300
Se       2.43625698      37.99682106      13.30000000      -0.00537600      -0.00014800       0.23235400
Mo       3.41075944      39.68556851      15.00000000       0.00340300       0.00015200       0.00011500
Se       5.35947551      39.68556858      16.70000000      -0.00545500       0.00000300      -0.22382800
Se       5.35947502      39.68556858      13.30000000      -0.00551500      -0.00014300       0.22391800
Mo       6.33413875      21.10934500      15.00000000       0.00138600      -0.00000000       0.00832500
Se       8.28306430      21.10934507      16.70000000      -0.01996600      -0.00000100      -0.18681400
Se       8.28306411      21.10934507      13.30000000       0.05178300      -0.00000100       0.24253700
Mo       9.25756657      22.79809252      15.00000000      -0.30866700       0.00562000      -0.09446300
Se      11.20628264      22.79809259      16.70000000       0.83358600      -0.00971400      -0.16971500
Se      11.20628215      22.79809259      13.30000000       0.00953900       0.00071500       0.24773600
Mo       6.33413875      24.48684020      15.00000000       0.00288900       0.00171000       0.00812700
Se       8.28306430      24.48684027      16.70000000      -0.01686900      -0.00647300      -0.19189700
Se       8.28306411      24.48684027      13.30000000       0.05088600       0.00048500       0.24077200
Mo       9.25756657      26.17558772      15.00000000      -0.29115000      -0.00375800      -0.08354700
Se      11.20628264      26.17558779      16.70000000       0.82712100      -0.01987000      -0.18389700
Se      11.20628215      26.17558779      13.30000000       0.03347300       0.03260100       0.24993600
Mo       6.33413875      27.86433540      15.00000000      -0.00172300       0.01472300       0.00723500
Se       8.28306430      27.86433547      16.70000000      -0.01379600      -0.00260100      -0.21031800
Se       8.28306411      27.86433547      13.30000000       0.04818700      -0.00956600       0.23932100
Mo       9.25756657      29.55308292      15.00000000      -0.14383200       0.05316200      -0.01781200
Se      11.20628264      29.55308299      16.70000000       0.36568600      -0.16041000      -0.22630200
Se      11.20628215      29.55308299      13.30000000       0.03707200      -0.16098100       0.22798800
Mo       6.33413875      31.24183060      15.00000000      -0.00720800       0.01369800       0.00028100
Se       8.28306430      31.24183066      16.70000000       0.01259100       0.00089200      -0.21598700
Se       8.28306411      31.24183066      13.30000000       0.00447800      -0.00706900       0.21561200
Mo       9.25756657      32.93057812      15.00000000      -0.01418900      -0.00484300       0.00787000
Se      11.20628264      32.93057819      16.70000000       0.00538800       0.01127800      -0.22537500
Se      11.20628215      32.93057819      13.30000000       0.00119500       0.01740200       0.24107600
Mo       6.33413875      34.61932579      15.00000000      -0.01062800       0.00062000      -0.00113400
Se       8.28306430      34.61932586      16.70000000       0.01343700      -0.00042500      -0.22546700
Se       8.28306411      34.61932586      13.30000000       0.01095500       0.00048900       0.22269000
Mo       9.25756657      36.30807332      15.00000000      -0.00765000      -0.00133700      -0.00210800
Se      11.20628264      36.30807338      16.70000000       0.01028500       0.00060300      -0.23063000
Se      11.20628215      36.30807338      13.30000000       0.01108000       0.00208900       0.22872100
Mo       6.33413875      37.99682099      15.00000000      -0.00975300      -0.00002600      -0.00023600
Se       8.28306430      37.99682106      16.70000000       0.01345600      -0.00003200      -0.22359700
Se       8.28306411      37.99682106      13.30000000       0.01341100       0.00025100       0.22348500
Mo       9.25756657      39.68556851      15.00000000      -0.00837200      -0.00043800      -0.00019300
Se      11.20628264      39.68556858      16.70000000       0.01077300       0.00023600      -0.22890400
Se      11.20628215      39.68556858      13.30000000       0.01052200      -0.00001000       0.22949600
Mo      12.18094588      21.10934500      15.00000000       0.56853000      -0.00000000      -0.40247300
Se      14.12987124      21.10934507      13.30000000       0.28764800      -0.00000100       0.89374500
Mo      15.10437370      22.79809252      15.00000000      -0.27460700       0.00288500      -0.53153000
Se      17.05308977      22.79809259      16.70000000      -0.73446500       0.00357600      -0.32019800
Se      17.05308928      22.79809259      13.30000000      -0.44075300       0.00344800       0.29514700
Mo      12.18094588      24.48684020      15.00000000       0.59991100      -0.00540700      -0.38832000
Se      14.12987124      24.48684027      13.30000000       0.28533700       0.01656400       0.88687700
Mo      15.10437370      26.17558772      15.00000000      -0.24304500       0.05867800      -0.58201600
Se      17.05308977      26.17558779      16.70000000      -0.74791400       0.00581700      -0.30818500
Se      17.05308928      26.17558779      13.30000000      -0.45084400      -0.03829800       0.27101100
Mo      12.18094588      27.86433540      15.00000000       0.47182200      -0.12824500      -0.36839300
Se      14.12987124      27.86433547      13.30000000       0.14168900      -0.08194600       0.80745000
Mo      15.10437370      29.55308292      15.00000000      -0.27390400      -0.23144000      -0.31315500
Se      17.05308977      29.55308299      16.70000000      -0.28682800      -0.21373700      -0.22739600
Se      17.05308928      29.55308299      13.30000000      -0.18122700       0.03058900       0.24913900
Mo      12.18094588      31.24183060      15.00000000       0.13405400      -0.23776900       0.06017000
Se      14.12987143      31.24183066      16.70000000      -0.03862200      -0.36962500      -0.22385700
Se      14.12987124      31.24183066      13.30000000       0.15965900      -0.12255100       0.22777200
Mo      15.10437370      32.93057812      15.00000000       0.00329600       0.13460800      -0.00640200
Se      17.05308977      32.93057819      16.70000000       0.00630100       0.02320100      -0.22930800
Se      17.05308928      32.93057819      13.30000000      -0.01754400      -0.02442100       0.23939400
Mo      12.18094588      34.61932579      15.00000000      -0.00024400      -0.00021000       0.01148000
Se      14.12987143      34.61932586      16.70000000      -0.00423500       0.00240800      -0.22456300
Se      14.12987124      34.61932586      13.30000000       0.00597100       0.00342100       0.22177900
Mo      15.10437370      36.30807332      15.00000000      -0.00876800       0.00033400       0.00015700
Se      17.05308977      36.30807338      16.70000000      -0.00542900      -0.00064600      -0.22386700
Se      17.05308928      36.30807338      13.30000000      -0.00400500       0.00047300       0.22420100
Mo      12.18094588      37.99682099      15.00000000      -0.00751200      -0.00033400      -0.00063900
Se      14.12987143      37.99682106      16.70000000      -0.00365500       0.00027700      -0.23186000
Se      14.12987124      37.99682106      13.30000000      -0.00481300       0.00011200       0.23167400
Mo      15.10437370      39.68556851      15.00000000       0.00159800       0.00044400      -0.00015400
Se      17.05308977      39.68556858      16.70000000      -0.00519000      -0.00052200      -0.22365000
Se      17.05308928      39.68556858      13.30000000      -0.00492700      -0.00022600       0.22380200
Mo      18.02775301      21.10934500      15.00000000      -0.04427300      -0.00000000       0.03773400
Se      19.97667856      21.10934507      16.70000000       0.05379300      -0.00000100      -0.21592000
Se      19.97667837      21.10934507      13.30000000       0.02228400      -0.00000100       0.20713000
Mo      20.95118083      22.79809252      15.00000000      -0.01737600      -0.00174500       0.03059500
Se      22.89989690      22.79809259      16.70000000       0.01523200      -0.00005700      -0.23193300
Se      22.89989641      22.79809259      13.30000000       0.01614900       0.00010800       0.22621600
Mo      18.02775301      24.48684020      15.00000000      -0.03951400      -0.00435700       0.03253700
Se      19.97667856      24.48684027      16.70000000       0.05403500       0.00250400      -0.21599200
Se      19.97667837      24.48684027      13.30000000       0.02448400       0.00472500       0.20831000
Mo      20.95118083      26.17558772      15.00000000      -0.02133900      -0.01639000       0.02829300
Se      22.89989690      26.17558779      16.70000000       0.01455300       0.00173600      -0.23285900
Se      22.89989641      26.17558779      13.30000000       0.01586200       0.00017300       0.22703700
Mo      18.02775301      27.86433540      15.00000000      -0.16292000       0.16481700       0.04772800
Se      19.97667856      27.86433547      16.70000000       0.04056800       0.00821700      -0.21768400
Se      19.97667837      27.86433547      13.30000000       0.02898500       0.01207700       0.22271000
Mo      20.95118083      29.55308292      15.00000000      -0.01020700      -0.01017400       0.01476700
Se      22.89989690      29.55308299      16.70000000       0.01308800       0.00191900      -0.23080200
Se      22.89989641      29.55308299      13.30000000       0.01305100       0.00195300       0.22733400
Mo      18.02775301      31.24183060      15.00000000       0.09079300       0.07053300      -0.00153400
Se      19.97667856      31.24183066      16.70000000       0.01759300       0.00309600      -0.21825500
Se      19.97667837      31.24183066      13.30000000       0.01015400       0.01601900       0.21453300
Mo      20.95118083      32.93057812      15.00000000      -0.00318900      -0.01120100       0.00040600
Se      22.89989690      32.93057819      16.70000000       0.01107600       0.00157900      -0.22923500
Se      22.89989641      32.93057819      13.30000000       0.01105200       0.00006100       0.22857200
Mo      18.02775301      34.61932579      15.00000000      -0.01486100      -0.00776300       0.00301300
Se      19.97667856      34.61932586      16.70000000       0.01345100       0.00020900      -0.22389900
Se      19.97667837      34.61932586      13.30000000       0.01372900       0.00120700       0.22446600
Mo      20.95118083      36.30807332      15.00000000      -0.00811900       0.00037100      -0.00067900
Se      22.89989690      36.30807338      16.70000000       0.01014300      -0.00035300      -0.22895100
Se      22.89989641      36.30807338      13.30000000       0.01014600      -0.00006400       0.22924900
Mo      18.02775301      37.99682099      15.00000000      -0.01061000      -0.00018700      -0.00054600
Se      19.97667856      37.99682106      16.70000000       0.01367100      -0.00021900      -0.22374800
Se      19.97667837      37.99682106      13.30000000       0.01355400      -0.00021700       0.22371700
Mo      20.95118083      39.68556851      15.00000000      -0.00849300       0.00047600      -0.00002500
Se      22.89989690      39.68556858      16.70000000       0.01039100      -0.00004300      -0.22929800
Se      22.89989641      39.68556858      13.30000000       0.01025600      -0.00007700       0.22929300
283