88
Lattice="16.71105 0.0 0.0 0.0 17.366633 0.0 0.0 0.0 30.0" Properties=species:S:1:pos:R:3:forces:R:3 energy=-407.5614199999982 stress="0.000537 -0.0 0.0 -0.0 0.00034 2e-06 0.0 2e-06 -4.7e-05" pbc="T T T" 
Mo      -0.00000200       1.92962700       3.24785400       0.00008300       0.00787200       0.01924900
Se       1.67110700       0.96481200       1.55407500       0.00670100       0.00646400      -0.05626200
Se       1.67110700       0.96481200       4.94331000       0.00857100       0.00504300       0.03778100
Mo       3.34220800       1.92962700       3.24785400       0.03064300      -0.09258700       0.02249800
Se       5.01331700       0.96481200       1.55407500      -0.00964800       0.00405100      -0.06331900
Se       5.01331700       0.96481200       4.94331000      -0.00966200       0.00443000       0.04322800
Mo       6.68441800       1.92962700       3.24785400      -0.01582200      -0.03984000       0.02101900
Se       8.35552700       0.96481200       1.55407500      -0.00003500      -0.02288800      -0.07273400
Se       8.35552700       0.96481200       4.94331000      -0.00003500      -0.02471600       0.04918800
Mo      10.02662800       1.92962700       3.24785400       0.01596700      -0.03984400       0.02101900
Se      11.69773700       0.96481200       1.55407500       0.00958200       0.00404800      -0.06333200
Se      11.69773700       0.96481200       4.94331000       0.00959500       0.00443000       0.04324000
Mo      13.36883800       1.92962700       3.24785400      -0.03049500      -0.09259400       0.02249400
Se      15.03994700       0.96481200       1.55407500      -0.00676400       0.00646100      -0.05626900
Se      15.03994700       0.96481200       4.94331000      -0.00863600       0.00504200       0.03778900
Se       0.00000200       3.85925100       1.55407500      -0.00003000      -0.00967400      -0.06882400
Se       0.00000200       3.85925100       4.94331000      -0.00003000      -0.00881800       0.04711800
Mo       1.67110300       4.82406600       3.24785400       0.00351000      -0.01075500       0.01878400
Se       3.34221200       3.85925100       1.55407500      -0.00831200      -0.00048700      -0.09429400
Se       3.34221200       3.85925100       4.94331000      -0.00912800       0.00045800       0.07626800
Mo       5.01331300       4.82406600       3.24785400      -0.29382200       0.34007400       0.01939500
Se       6.68442200       3.85925100       1.55407500      -0.00001600       0.12917800      -0.09085100
Se       6.68442200       3.85925100       4.94331000      -0.00161000       0.12721200       0.07197600
Mo       8.35552300       4.82406600       3.24785400       0.00005500       0.53374600       0.01742000
Se      10.02663200       3.85925100       1.55407500      -0.00005300       0.12917500      -0.09086900
Se      10.02663200       3.85925100       4.94331000       0.00153600       0.12720600       0.07199300
Mo      11.69773300       4.82406600       3.24785400       0.29395300       0.34003700       0.01939500
Se      13.36884200       3.85925100       1.55407500       0.00824800      -0.00049100      -0.09432300
Se      13.36884200       3.85925100       4.94331000       0.00906600       0.00045400       0.07629800
Mo      15.03994300       4.82406600       3.24785400      -0.00331100      -0.01079100       0.01879000
Mo      -0.00000200       7.71850400       3.24785400       0.00009100       0.08313900       0.01949100
Se       1.67110700       6.75368900       1.55407500       0.01280900      -0.03721200      -0.10701000
Se       1.67110700       6.75368900       4.94331000       0.01437000      -0.03661300       0.08809600
Mo       3.34220800       7.71850400       3.24785400       0.36491000      -0.16605500       0.01797100
Se       5.01331700       6.75368900       1.55407500       0.27089800      -0.11635700       0.27280000
Se       5.01331700       6.75368900       4.94331000       0.26949600      -0.11966400      -0.28072900
Se       8.35552700       6.75368900       1.55407500      -0.00002300       0.29857000       0.56189700
Se       8.35552700       6.75368900       4.94331000       0.00010900       0.29884900      -0.56239100
Se      11.69773700       6.75368900       1.55407500      -0.27096400      -0.11635700       0.27272200
Se      11.69773700       6.75368900       4.94331000      -0.26956300      -0.11966400      -0.28065200
Mo      13.36883800       7.71850400       3.24785400      -0.36466000      -0.16608500       0.01804500
Se      15.03994700       6.75368900       1.55407500      -0.01286400      -0.03721200      -0.10703700
Se      15.03994700       6.75368900       4.94331000      -0.01462200      -0.03662800       0.08828700
Se       0.00000200       9.64812800       1.55407500      -0.00002900       0.00596400      -0.07840600
Se       0.00000200       9.64812800       4.94331000      -0.00002900       0.00403400       0.05491300
Mo       1.67110300      10.61294300       3.24785400      -0.00509300      -0.04345500       0.02085900
Se       3.34221200       9.64812800       1.55407500       0.09969100       0.03664700      -0.09480400
Se       3.34221200       9.64812800       4.94331000       0.09942400       0.03693700       0.07481600
Mo       5.01331300      10.61294300       3.24785400      -0.08449500      -0.17198900       0.01958600
Se       6.68442200       9.64812800       1.55407500       0.29577600      -0.18599400       0.30968300
Se       6.68442200       9.64812800       4.94331000       0.29355000      -0.18229600      -0.31807700
Mo       8.35552300      10.61294300       3.24785400       0.00003600       0.00011800       0.01432900
Se      10.02663200       9.64812800       1.55407500      -0.29583800      -0.18600100       0.30964400
Se      10.02663200       9.64812800       4.94331000      -0.29361200      -0.18229100      -0.31804000
Mo      11.69773300      10.61294300       3.24785400       0.08461000      -0.17196700       0.01959100
Se      13.36884200       9.64812800       1.55407500      -0.09974000       0.03665100      -0.09485000
Se      13.36884200       9.64812800       4.94331000      -0.09947100       0.03692800       0.07486700
Mo      15.03994300      10.61294300       3.24785400       0.00526700      -0.04344800       0.02085900
Mo      -0.00000200      13.50738200       3.24785400       0.00008400       0.00568300       0.02635600
Se       1.67110700      12.54256700       1.55407500       0.00929700      -0.00345500      -0.06462500
Se       1.67110700      12.54256700       4.94331000       0.01101000      -0.00551300       0.04423600
Mo       3.34220800      13.50738200       3.24785400      -0.06056100       0.03763900       0.02258100
Se       5.01331700      12.54256700       1.55407500       0.07267900      -0.02592300      -0.06006100
Se       5.01331700      12.54256700       4.94331000       0.07395600      -0.02585300       0.04206600
Mo       6.68441800      13.50738200       3.24785400      -0.07709300       0.04044600       0.01834000
Se       8.35552700      12.54256700       1.55407500       0.00017300      -0.07693300      -0.18701400
Se       8.35552700      12.54256700       4.94331000      -0.00003600      -0.07670700       0.16751000
Mo      10.02662800      13.50738200       3.24785400       0.07724000       0.04045400       0.01834000
Se      11.69773700      12.54256700       1.55407500      -0.07274400      -0.02591300      -0.06009100
Se      11.69773700      12.54256700       4.94331000      -0.07401900      -0.02584200       0.04209600
Mo      13.36883800      13.50738200       3.24785400       0.06072500       0.03765100       0.02258100
Se      15.03994700      12.54256700       1.55407500      -0.00936000      -0.00345300      -0.06463900
Se      15.03994700      12.54256700       4.94331000      -0.01107800      -0.00550800       0.04425000
Se       0.00000200      15.43700600       1.55407500      -0.00003700       0.00291200      -0.05761100
Se       0.00000200      15.43700600       4.94331000      -0.00003700       0.00609900       0.03673700
Mo       1.67110300      16.40182100       3.24785400       0.02353500       0.00581500       0.02196900
Se       3.34221200      15.43700600       1.55407500       0.02196000      -0.01174000      -0.06584300
Se       3.34221200      15.43700600       4.94331000       0.01910000      -0.01265400       0.04520900
Mo       5.01331300      16.40182100       3.24785400      -0.01020900       0.01905300       0.02132900
Se       6.68442200      15.43700600       1.55407500       0.00610800      -0.00753000      -0.07946100
Se       6.68442200      15.43700600       4.94331000       0.00498600      -0.00683100       0.05977200
Mo       8.35552300      16.40182100       3.24785400       0.00007500       0.00813800       0.01966300
Se      10.02663200      15.43700600       1.55407500      -0.00617800      -0.00752900      -0.07946800
Se      10.02663200      15.43700600       4.94331000      -0.00525300      -0.00681600       0.05961500
Mo      11.69773300      16.40182100       3.24785400       0.01046300       0.01909200       0.02124300
Se      13.36884200      15.43700600       1.55407500      -0.02202600      -0.01173800      -0.06585300
Se      13.36884200      15.43700600       4.94331000      -0.01916700      -0.01265200       0.04522000
Mo      15.03994300      16.40182100       3.24785400      -0.02337400       0.00581600       0.02196900
88
Lattice="16.71105 0.0 0.0 0.0 17.366633 0.0 0.0 0.0 30.0" Properties=species:S:1:pos:R:3:forces:R:3 energy=-407.1249199999984 stress="0.000354 -1e-05 0.000177 -1e-05 0.00024 -0.000214 0.000177 -0.000214 -0.000227" pbc="T T T" 
Mo       0.01824246       1.89901108       3.25494822      -0.64134600       0.34640700      -0.39272500
Se       1.66588413       0.97542505       1.55339925       0.21434600      -0.06398100      -0.06558200
Se       1.68065926       0.95581258       4.92898885      -0.01795300      -0.03520400       0.38442600
Mo       3.33896214       1.94437282       3.26883020       0.15343700      -0.18318700      -0.49286000
Se       4.99956706       0.98481859       1.53073006       0.06089500      -0.10283100       0.51901600
Se       4.99525408       0.98484034       4.99479231       0.23582700      -0.02786900      -0.47667400
Mo       6.68918363       1.95020128       3.25078630      -0.27308800      -0.64149200       0.06910300
Se       8.33942804       0.94888168       1.53106023       0.15837400       0.28695100       0.25513400
Se       8.36961169       0.95586477       4.92327180      -0.08893100       0.14402600       0.25010500
Mo      10.04005188       1.94337942       3.25712508      -0.19291900      -0.43562600      -0.44297700
Se      11.70486075       0.98085599       1.55698292      -0.08408600      -0.04201300      -0.03954400
Se      11.71676554       0.95669185       4.96220753      -0.10378400       0.11519700      -0.11724000
Mo      13.36647582       1.93610442       3.24773654       0.13814000       0.10246800      -0.08386000
Se      15.00760508       0.94074770       1.53111890       0.29726800       0.25984700       0.27971800
Se      15.03400765       0.95881244       4.94987698       0.00942000       0.05364900      -0.05247100
Se      -0.01020258       3.86033972       1.54715155       0.21907000      -0.17582500       0.19643000
Se       0.00082863       3.84873102       4.93113798      -0.05091000      -0.02819000       0.09666700
Mo       1.69018438       4.82078517       3.26648623      -0.56928100       0.25400400      -0.29841900
Se       3.33019923       3.88021239       1.54784606       0.12988900      -0.17403800      -0.00566100
Se       3.32356521       3.86985152       4.94412735       0.35016400       0.01140500       0.23869400
Mo       5.02005934       4.83796143       3.23376030      -0.51567400      -0.00006900       0.30088900
Se       6.69564936       3.85234329       1.58479434      -0.14127400       0.23813300      -0.60165700
Se       6.69081535       3.84997923       4.94206917      -0.15053500       0.28131900       0.21130000
Mo       8.32211778       4.85162210       3.25003902       0.74068500       0.30900400       0.26606800
Se      10.01283036       3.87621171       1.54103124      -0.04319600       0.06636400       0.17475000
Se      10.04066606       3.82123046       4.95869519      -0.20212400       0.58334900      -0.12014200
Mo      11.68860121       4.81862144       3.24481549       0.31022300       0.35169300      -0.03228000
Se      13.37843395       3.89021649       1.52145969      -0.19669600      -0.32997400       0.19108300
Se      13.37757503       3.88938404       4.93069824      -0.10001700      -0.24721900       0.19712700
Mo      15.02932152       4.81823317       3.23429986       0.37032200       0.04326800       0.16161400
Mo       0.02503194       7.74899527       3.25659420      -0.38025900      -0.77057600      -0.53345300
Se       1.69718975       6.74703829       1.57575736      -0.23531100      -0.04115200      -0.28274100
Se       1.67374432       6.77362473       4.95968462       0.16302800      -0.20641200      -0.00562200
Mo       3.35374843       7.71073085       3.23956824       0.41787400      -0.15873300       0.24412800
Se       5.01038270       6.76309812       1.54854957       0.37616100      -0.14018600       0.13191000
Se       5.02015950       6.72020390       4.93265278       0.23314300       0.11788500      -0.16620000
Se       8.34421209       6.76232275       1.55702535      -0.07514200       0.35402500       0.47900500
Se       8.36665919       6.75271851       4.94969758       0.02927100       0.36676200      -0.47054700
Se      11.69120012       6.74525586       1.56752576      -0.39510300      -0.13329800       0.10608000
Se      11.70238540       6.75239607       4.94990003      -0.38760000      -0.23261600      -0.17358100
Mo      13.34059557       7.68978928       3.25135911       0.20730600       0.25522900      -0.06493400
Se      15.02441486       6.72886737       1.55411709       0.20039400       0.35335300       0.00481300
Se      15.06242798       6.75773395       4.93334299      -0.15304900      -0.10045100       0.03889700
Se       0.01245941       9.65737086       1.56397484      -0.20295600      -0.13273900      -0.49562000
Se       0.02106669       9.60163909       4.93588737      -0.01281300       0.52187000       0.58854500
Mo       1.65341480      10.58781227       3.23265641       0.42353200       0.27027700       0.52187300
Se       3.33877159       9.63989196       1.55213101       0.17129800       0.05655200      -0.18277500
Se       3.34044573       9.64224375       4.91111695       0.11933300       0.04387000       0.40843900
Mo       5.02045088      10.58778351       3.25180330      -0.16421500       0.52091500      -0.07240000
Se       6.68190094       9.64937587       1.55913406       0.38019500      -0.22854900       0.23075800
Se       6.68869764       9.64265683       4.95659694       0.28374900      -0.20213700      -0.32664900
Mo       8.34538348      10.61947132       3.24996542       0.08788800      -0.00939000      -0.24881900
Se      10.03160089       9.63773356       1.55613216      -0.44840100      -0.18288800       0.27222800
Se      10.01636592       9.64712300       4.92970275      -0.33260300      -0.22592700      -0.20510000
Mo      11.68729678      10.59480329       3.24523228       0.30352000       0.03988100       0.04543400
Se      13.36803284       9.64090840       1.54109712       0.12784300       0.03726500       0.35679400
Se      13.37428481       9.64104025       4.93230483      -0.07646300       0.01582400       0.07024500
Mo      15.08928924      10.62842189       3.27378213      -0.69694200      -0.80674900      -0.58318800
Mo       0.03673988      13.52818660       3.25023930      -0.96226500      -0.17997400       0.04540600
Se       1.65405013      12.51950741       1.59016190       0.44147000       0.27485600      -0.40945400
Se       1.64065373      12.53958699       4.94388754       0.46072500      -0.11214700       0.09014400
Mo       3.36534337      13.51828933       3.26896555      -0.55757800      -0.36794300      -0.23509900
Se       5.00150183      12.55265633       1.53904471       0.07956000      -0.25155600       0.18310800
Se       5.04811977      12.57715239       4.94956935      -0.32396300      -0.56689300       0.16888100
Mo       6.65241837      13.50446603       3.25181243       0.75905100       0.30796600      -0.37061100
Se       8.37722824      12.56382920       1.51784619      -0.24736100      -0.14274500       0.34638400
Se       8.33822823      12.53743734       4.94115761       0.08543500       0.06840000       0.08873200
Mo      10.03670625      13.50925436       3.25578892      -0.15678000      -0.07146200      -0.44187800
Se      11.70117194      12.50917593       1.55135701      -0.17323900       0.15870800      -0.09976400
Se      11.69799314      12.54492504       4.93907530      -0.03826700      -0.21410000       0.09383800
Mo      13.36585323      13.48551944       3.23077416       0.21169000       0.19073300       0.32081500
Se      15.05413470      12.53918962       1.57006632       0.16024900       0.08391700      -0.17470700
Se      15.04212828      12.50637147       4.94357708       0.14244400       0.61691000       0.11697200
Se       0.01529032      15.45522910       1.54202475      -0.16335900      -0.09896200       0.01934700
Se      -0.00475263      15.45243869       4.92132738       0.02197500      -0.01771500       0.30609100
Mo       1.67440392      16.40243420       3.23913625       0.10385000       0.17568600      -0.01593900
Se       3.32131853      15.42711322       1.54722140       0.35667600       0.09888100       0.13003400
Se       3.34910645      15.45118997       4.93487587      -0.08499800      -0.04514000       0.27480300
Mo       5.02378411      16.40472824       3.26954472      -0.60381200       0.54892500      -0.27365000
Se       6.63258847      15.44572254       1.56962743       0.37146000      -0.10252600      -0.18282600
Se       6.66357296      15.44017480       4.97173420       0.25548600      -0.04146900      -0.14156700
Mo       8.33717395      16.41310668       3.24484818      -0.11011700      -0.35810500       0.07726700
Se      10.01496130      15.46661223       1.56846763       0.01466900      -0.25958400      -0.23544600
Se      10.03948618      15.43012311       4.91500699      -0.28373400       0.11529900       0.42801200
Mo      11.68675846      16.40770256       3.25033774       0.37072100       0.17130500      -0.21227200
Se      13.39628896      15.44444600       1.56943389      -0.47091700      -0.21037900      -0.31374300
Se      13.35930643      15.43207557       4.92298454      -0.02035600      -0.17454900       0.21380200
Mo      15.02004124      16.40185440       3.24731745       0.49667800       0.06413500      -0.02149800
88
Lattice="16.71105 0.0 0.0 0.0 17.366633 0.0 0.0 0.0 30.0" Properties=species:S:1:pos:R:3:forces:R:3 energy=-406.09951999999976 stress="0.000161 -2.5e-05 0.000328 -2.5e-05 7e-05 -0.000461 0.000328 -0.000461 -0.000493" pbc="T T T" 
Mo       0.03058625       1.87102701       3.25839635      -1.12076600       0.64200900      -0.62755300
Se       1.66309637       0.98556570       1.55187797       0.37417300      -0.12616800      -0.08699600
Se       1.69025549       0.94614127       4.91890376      -0.06161800      -0.04599000       0.61786800
Mo       3.33714121       1.95770495       3.28550033       0.23542600      -0.22520300      -0.84888200
Se       4.98620302       1.00417582       1.51297625       0.13162600      -0.16889500       0.92461400
Se       4.97957288       1.00509407       5.04188301       0.41067600      -0.05545000      -0.87776900
Mo       6.69142156       1.96496736       3.25449726      -0.40981900      -1.06545300       0.10615800
Se       8.32479502       0.93596350       1.51050326       0.26553500       0.50288000       0.49991200
Se       8.38300800       0.94842913       4.90566781      -0.17878900       0.27815700       0.40629600
Mo      10.05193132       1.95321141       3.26226870      -0.36681100      -0.69506000      -0.75454900
Se      11.71116444       0.99682060       1.55943369      -0.15864800      -0.09568300      -0.06671800
Se      11.73507710       0.94977163       4.98020685      -0.19483400       0.22303000      -0.28093900
Mo      13.36542078       1.94370795       3.24681087       0.26152400       0.22007600      -0.13464800
Se      14.97788632       0.91913520       1.51080611       0.51209800       0.45733900       0.50420200
Se      15.02800548       0.95331972       4.95598174       0.02122100       0.09925500      -0.13433400
Se      -0.01803010       3.85932813       1.54238761       0.38677900      -0.29655300       0.36990000
Se       0.00105724       3.83754760       4.91977346      -0.09383600      -0.03638500       0.13607600
Mo       1.70415117       4.81993916       3.28267568      -1.00649400       0.43214000      -0.54066400
Se       3.31939486       3.89964392       1.54137196       0.21581900      -0.32173100       0.08745400
Se       3.30868413       3.88086222       4.94791568       0.62148300      -0.00937700       0.37079500
Mo       5.02181202       4.85224217       3.22223885      -0.63020500      -0.37079900       0.47579100
Se       6.70547548       3.84821900       1.60902627      -0.26683900       0.32945000      -0.97943700
Se       6.69554597       3.84389605       4.94334648      -0.26753700       0.39678600       0.28227100
Mo       8.29518832       4.88308634       3.25491943       1.33807900       0.05447000       0.41696400
Se       9.99813827       3.89441503       1.52978452      -0.06052500      -0.02278900       0.42182800
Se      10.05264738       3.78929251       4.97310650      -0.33312700       0.95421300      -0.25464200
Mo      11.68236429       4.81656910       3.24139213       0.28909800       0.29450000      -0.05419700
Se      13.38589116       3.91808806       1.49016063      -0.35870400      -0.58494000       0.41490200
Se      13.38528988       3.91735596       4.92014889      -0.20504300      -0.46168100       0.28970900
Mo      15.02207380       4.81267132       3.22198751       0.64986600       0.08211100       0.27872500
Mo       0.04691812       7.77261425       3.26026045      -0.69436100      -1.47742000      -0.95391900
Se       1.72114445       6.73965824       1.59454056      -0.44491400      -0.03048500      -0.45575700
Se       1.67842753       6.79159475       4.97645940       0.26495800      -0.35154100      -0.11739800
Mo       3.36983380       7.70115760       3.23348670       0.39736100      -0.09969000       0.41758200
Se       5.01202700       6.77104957       1.54449182       0.46535200      -0.15970500      -0.01804200
Se       5.03011093       6.68724710       4.91970642       0.21626000       0.39062000       0.02007300
Se       8.33161486       6.77565987       1.56599674      -0.15170900       0.43150500       0.37909700
Se       8.37850892       6.75628158       4.95044207       0.06382800       0.45650800      -0.35387900
Se      11.67959127       6.73496113       1.58267321      -0.49435000      -0.10566900      -0.08307400
Se      11.70238715       6.74821141       4.95454093      -0.46932800      -0.30835700      -0.04535000
Mo      13.31357893       7.66281743       3.25432022       0.69033000       0.61901400      -0.11652400
Se      15.01086148       6.70764477       1.55416104       0.35691300       0.67521900       0.04150300
Se      15.08368624       6.76066662       4.92356729      -0.28800400      -0.15897800      -0.00378100
Se       0.02279855       9.66522218       1.56808766      -0.37304200      -0.28073300      -0.84609100
Se       0.04250618       9.56028667       4.93549909      -0.07517400       1.01230200       1.04682300
Mo       1.63950725      10.56466119       3.22228020       0.80327300       0.53358900       0.92443600
Se       3.33735413       9.63211246       1.54793192       0.23467700       0.06420400      -0.20799900
Se       3.34006789       9.63669993       4.88303910       0.13226200       0.02260100       0.71910000
Mo       5.02613800      10.56706714       3.25511629      -0.18937100       1.03218800      -0.16708100
Se       6.68398565       9.64781428       1.56718557       0.41558000      -0.26336600       0.13213300
Se       6.69659004       9.63452175       4.96620024       0.24475600      -0.20515500      -0.33588400
Mo       8.33582564      10.62611783       3.24966458       0.16246400       0.00853000      -0.43018000
Se      10.03119885       9.62476040       1.56159336      -0.54571900      -0.17817100       0.20249400
Se      10.00172142       9.64330335       4.91316346      -0.32588300      -0.26601700      -0.08448700
Mo      11.67954476      10.57652187       3.24299922       0.42825000       0.22366900       0.07369700
Se      13.36866521       9.63392456       1.53202473       0.26170700       0.00975600       0.64898900
Se      13.37892637       9.63394115       4.92190016      -0.05537100      -0.01853000       0.08503100
Mo      15.13299455      10.63629235       3.29463706      -1.26548800      -1.35281000      -1.02640800
Mo       0.06483073      13.54775316       3.25313493      -1.74700300      -0.34560400       0.03989600
Se       1.64185012      12.49912464       1.62227068       0.77942300       0.50034000      -0.72053800
Se       1.61497896      12.53519135       4.94559877       0.84187900      -0.17689400       0.14818700
Mo       3.38357923      13.52580442       3.28833492      -0.88094900      -0.68077100      -0.42900700
Se       4.99028362      12.55998505       1.52573425       0.07961500      -0.41493000       0.37471000
Se       5.07991745      12.60582725       4.95812776      -0.70164900      -0.99300900       0.30066600
Mo       6.62705594      13.50454496       3.25221345       1.38150500       0.50376500      -0.64800000
Se       8.39653531      12.58397167       1.48467419      -0.44207800      -0.20089700       0.72238200
Se       8.32154526      12.53299446       4.93998725       0.19780600       0.21041000      -0.01547700
Mo      10.04551034      13.51043551       3.25953237      -0.36863800      -0.18749100      -0.79122600
Se      11.70259934      12.47677617       1.54738940      -0.21923600       0.33392200      -0.10743000
Se      11.69778707      12.54474077       4.93582555      -0.00332300      -0.35891500       0.10714200
Mo      13.36488665      13.46493853       3.21641474       0.28251400       0.30489800       0.54398300
Se      15.07065641      12.53673402       1.58437093       0.27212400       0.13642700      -0.27011700
Se      15.04607650      12.47663193       4.94535058       0.22919600       1.11796000       0.22114400
Se       0.02901489      15.47274508       1.52983918      -0.30646900      -0.19858400       0.08920200
Se      -0.00930500      15.46811856       4.90247565       0.06887700      -0.01721100       0.53671600
Mo       1.67883554      16.40479143       3.23003803       0.15080000       0.27904900      -0.01323800
Se       3.30415256      15.41811742       1.54172152       0.59645800       0.16564900       0.27162500
Se       3.35511968      15.46519885       4.92956986      -0.19616700      -0.09503200       0.45438200
Mo       5.02854613      16.41316034       3.28918069      -1.00188800       0.89251100      -0.44848500
Se       6.58371622      15.45343639       1.58331944       0.65859000      -0.16501300      -0.30368200
Se       6.64519785      15.44294691       4.99926691       0.43470100      -0.04661300      -0.33032900
Mo       8.31726569      16.42111863       3.24253220      -0.10860700      -0.63635000       0.11109200
Se      10.00317500      15.49385357       1.58037632       0.04287800      -0.47471100      -0.36889900
Se      10.04922527      15.42446519       4.89113530      -0.51750700       0.23463500       0.73014500
Mo      11.67915439      16.41547026       3.25077746       0.61446000       0.28788500      -0.37907600
Se      13.41873101      15.44952129       1.58135470      -0.85560400      -0.40208700      -0.55466900
Se      13.34928207      15.42486891       4.90467988       0.00005400      -0.28661900       0.35212600
Mo      15.00458629      16.40255088       3.24658989       0.92482300       0.12789900      -0.02774300
88
Lattice="16.71105 0.0 0.0 0.0 17.366633 0.0 0.0 0.0 30.0" Properties=species:S:1:pos:R:3:forces:R:3 energy=-405.1451199999974 stress="0.00012 -3.1e-05 0.000451 -3.1e-05 -3e-05 -0.000659 0.000451 -0.000659 -0.000518" pbc="T T T" 
Mo       0.03275704       1.84580916       3.25565417      -1.30386000       0.85178400      -0.66394500
Se       1.66477754       0.99557476       1.54897151       0.46322100      -0.16538900      -0.11505000
Se       1.70043685       0.93450589       4.91535618      -0.14364200       0.03081200       0.67819400
Mo       3.33753545       1.97058636       3.29559629       0.23405700      -0.20654300      -0.95642000
Se       4.97260715       1.02417579       1.50463425       0.19686400      -0.23289300       1.12903500
Se       4.96692550       1.02759599       5.08438207       0.49275600      -0.09075400      -1.17982300
Mo       6.68959089       1.97055602       3.25989167      -0.44625000      -1.19495300       0.11105600
Se       8.31145216       0.92767099       1.49346608       0.31296800       0.60265400       0.67910600
Se       8.39602624       0.94352263       4.89076611      -0.27436900       0.34876400       0.51911800
Mo      10.06159367       1.95707783       3.26010980      -0.50754500      -0.76636300      -0.84710000
Se      11.71633025       1.01391549       1.56132309      -0.18635700      -0.14194100      -0.13845900
Se      11.75356416       0.94477473       4.99715343      -0.26450100       0.31582600      -0.46723000
Mo      13.36697375       1.95476649       3.24432857       0.29067800       0.25665100      -0.12180300