89
Lattice="16.71105 0.0 0.0 0.0 17.366633 0.0 0.0 0.0 30.0" Properties=species:S:1:pos:R:3:forces:R:3 energy=-417.73845499999516 stress="-0.000132 0.0 -0.0 0.0 -0.00014 2e-06 -0.0 2e-06 -0.000497" pbc="T T T" 
Mo      -0.00000200       1.92962700       3.24785400       0.00162600      -0.00008500       0.01929300
Se       1.67110700       0.96481200       1.55407500       0.01177400       0.01415700      -0.06031100
Se       1.67110700       0.96481200       4.94331000       0.01363200       0.01274400       0.04186900
Mo       3.34220800       1.92962700       3.24785400      -0.03201600      -0.12700400       0.02241100
Se       5.01331700       0.96481200       1.55407500      -0.00442800      -0.00287800      -0.07671700
Se       5.01331700       0.96481200       4.94331000      -0.00452500      -0.00258100       0.05672200
Mo       6.68441800       1.92962700       3.24785400      -0.01859300       0.01992800       0.02087200
Se       8.35552700       0.96481200       1.55407500       0.00293600      -0.00257800      -0.08335400
Se       8.35552700       0.96481200       4.94331000       0.00304600      -0.00454100       0.05983300
Mo      10.02662800       1.92962700       3.24785400       0.06339500      -0.12864700       0.02055200
Se      11.69773700       0.96481200       1.55407500      -0.00132500       0.01319100      -0.06410000
Se      11.69773700       0.96481200       4.94331000      -0.00130800       0.01358400       0.04419400
Mo      13.36883800       1.92962700       3.24785400      -0.01427500       0.00590700       0.02261500
Se      15.03994700       0.96481200       1.55407500      -0.00908800       0.00282400      -0.05354000
Se      15.03994700       0.96481200       4.94331000      -0.01094800       0.00141600       0.03496200
Se       0.00000200       3.85925100       1.55407500      -0.00374700      -0.00722800      -0.05114900
Se       0.00000200       3.85925100       4.94331000      -0.00369700      -0.00637300       0.02954400
Mo       1.67110300       4.82406600       3.24785400       0.04398100       0.01186800       0.01868800
Se       3.34221200       3.85925100       1.55407500      -0.00420900      -0.00851400      -0.04698900
Se       3.34221200       3.85925100       4.94331000      -0.00491800      -0.00732800       0.02912000
Mo       5.01331300       4.82406600       3.24785400       0.04490400       0.39517800       0.01928500
Se       6.68442200       3.85925100       1.55407500      -0.00977300       0.04066700      -0.12059900
Se       6.68442200       3.85925100       4.94331000      -0.01133100       0.03863700       0.10059700
Mo       8.35552300       4.82406600       3.24785400      -0.05907900       0.40249800       0.02235300
Se      10.02663200       3.85925100       1.55407500       0.02578300      -0.01463600      -0.05329000
Se      10.02663200       3.85925100       4.94331000       0.02716200      -0.01582700       0.03400300
Mo      11.69773300       4.82406600       3.24785400      -0.01475600       0.01938500       0.02281900
Se      13.36884200       3.85925100       1.55407500      -0.00752600      -0.00266300      -0.04315900
Se      13.36884200       3.85925100       4.94331000      -0.00660900      -0.00220300       0.02414600
Mo      15.03994300       4.82406600       3.24785400      -0.01721100      -0.00893800       0.01865200
Mo      -0.00000200       7.71850400       3.24785400      -0.13057600       0.01792900       0.01966600
Se       1.67110700       6.75368900       1.55407500      -0.00474800      -0.00453800      -0.06154300
Se       1.67110700       6.75368900       4.94331000      -0.00315900      -0.00390200       0.04270900
Mo       3.34220800       7.71850400       3.24785400       0.38596000      -0.14741300       0.01759200
Se       5.01331700       6.75368900       1.55407500      -0.00339900       0.00768700       0.14129600
Se       5.01331700       6.75368900       4.94331000      -0.00396200       0.00462500      -0.14888300
Se       8.35552700       6.75368900       1.55407500      -0.00136700       0.00727600       0.14252800
Se       8.35552700       6.75368900       4.94331000       0.00191600       0.00853300      -0.15113700
Mo      10.02662800       7.71850400       3.24785400      -0.35320000      -0.15442800       0.01895200
Se      11.69773700       6.75368900       1.55407500       0.02414900      -0.00767400      -0.06698600
Se      11.69773700       6.75368900       4.94331000       0.02078700      -0.00873600       0.04751400
Mo      13.36883800       7.71850400       3.24785400       0.11348000       0.03183100       0.02122100
Se      15.03994700       6.75368900       1.55407500      -0.01040200      -0.00581600      -0.07043500
Se      15.03994700       6.75368900       4.94331000      -0.01146300      -0.00505100       0.05083900
Se       0.00000200       9.64812800       1.55407500      -0.00559200      -0.00132500      -0.08414800
Se       0.00000200       9.64812800       4.94331000      -0.00566300      -0.00330900       0.06061200
Mo       1.67110300      10.61294300       3.24785400       0.03765700      -0.01135700       0.02092200
Se       3.34221200       9.64812800       1.55407500       0.04124600      -0.02160000      -0.12527100
Se       3.34221200       9.64812800       4.94331000       0.04125300      -0.02128900       0.10550600
Mo       5.01331300      10.61294300       3.24785400       0.30262400      -0.25083300       0.01873300
Se       6.68442200       9.64812800       1.55407500      -0.00854000       0.00114800       0.14846100
Se       6.68442200       9.64812800       4.94331000      -0.00993800       0.00330500      -0.15547000
Mo       8.35552300      10.61294300       3.24785400      -0.30983400      -0.24784500       0.01614800
Se      10.02663200       9.64812800       1.55407500      -0.03011500      -0.02062400      -0.12155200
Se      10.02663200       9.64812800       4.94331000      -0.02836200      -0.02196800       0.10348700
Mo      11.69773300      10.61294300       3.24785400      -0.00624500      -0.00995300       0.02274700
Se      13.36884200       9.64812800       1.55407500       0.00416600      -0.00157400      -0.07754600
Se      13.36884200       9.64812800       4.94331000       0.00421900      -0.00136000       0.05749100
Mo      15.03994300      10.61294300       3.24785400      -0.01832900       0.00483500       0.02081000
Mo      -0.00000200      13.50738200       3.24785400      -0.00231700       0.00235600       0.02641900
Se       1.67110700      12.54256700       1.55407500       0.00993900      -0.00146900      -0.07252400
Se       1.67110700      12.54256700       4.94331000       0.01171200      -0.00342900       0.05198700
Mo       3.34220800      13.50738200       3.24785400      -0.07532000       0.10538600       0.02254600
Se       5.01331700      12.54256700       1.55407500      -0.01071900       0.01765800      -0.04853100
Se       5.01331700      12.54256700       4.94331000      -0.00918500       0.01753500       0.03049100
Mo       6.68441800      13.50738200       3.24785400      -0.01680400      -0.03581400       0.01874700
Se       8.35552700      12.54256700       1.55407500      -0.00031400       0.01232000      -0.05641800
Se       8.35552700      12.54256700       4.94331000      -0.00103500       0.01295700       0.03582300
Mo      10.02662800      13.50738200       3.24785400       0.10458400       0.09770700       0.01861800
Se      11.69773700      12.54256700       1.55407500       0.01143200       0.00451100      -0.06643200
Se      11.69773700      12.54256700       4.94331000       0.01044600       0.00498600       0.04722100
Mo      13.36883800      13.50738200       3.24785400      -0.00948500      -0.00324800       0.02284700
Se      15.03994700      12.54256700       1.55407500      -0.01017500      -0.00472800      -0.05800100
Se      15.03994700      12.54256700       4.94331000      -0.01190200      -0.00677400       0.03748400
Se       0.00000200      15.43700600       1.55407500       0.00070700       0.00805600      -0.05954900
Se       0.00000200      15.43700600       4.94331000       0.00072700       0.01123900       0.03861800
Mo       1.67110300      16.40182100       3.24785400       0.02533600      -0.00863700       0.02199500
Se       3.34221200      15.43700600       1.55407500       0.02051800      -0.00631000      -0.07191700
Se       3.34221200      15.43700600       4.94331000       0.01769400      -0.00718000       0.05130900
Mo       5.01331300      16.40182100       3.24785400      -0.00769900       0.00487000       0.02143700
Se       6.68442200      15.43700600       1.55407500      -0.01025600       0.00649700      -0.05777000
Se       6.68442200      15.43700600       4.94331000      -0.01129900       0.00725600       0.03804400
Mo       8.35552300      16.40182100       3.24785400      -0.00830300      -0.00901400       0.01980400
Se      10.02663200      15.43700600       1.55407500      -0.00164500      -0.00307300      -0.06648700
Se      10.02663200      15.43700600       4.94331000      -0.00083500      -0.00225000       0.04658800
Mo      11.69773300      16.40182100       3.24785400       0.02033100       0.00036700       0.02131400
Se      13.36884200      15.43700600       1.55407500      -0.00948800       0.00130900      -0.06711400
Se      13.36884200      15.43700600       4.94331000      -0.00665100       0.00045500       0.04638800
Mo      15.03994300      16.40182100       3.24785400      -0.02913700       0.00348500       0.02204800
89
Lattice="16.71105 0.0 0.0 0.0 17.366633 0.0 0.0 0.0 30.0" Properties=species:S:1:pos:R:3:forces:R:3 energy=-417.2828550000013 stress="0.000122 -7e-06 5e-05 -7e-06 1.9e-05 -0.000152 5e-05 -0.000152 0.000321" pbc="T T T" 
Mo       0.01834878       1.89872565       3.25497995      -0.66321100       0.39864200      -0.39146200
Se       1.66585205       0.97518687       1.55345850       0.16993200      -0.11067300      -0.02957300
Se       1.68071346       0.95550352       4.92887595      -0.05046200      -0.07749200       0.35131000
Mo       3.33864208       1.94410406       3.26893465       0.06470400      -0.18320800      -0.48362300
Se       4.99948534       0.98474876       1.53044764       0.00980400      -0.06058100       0.46065900
Se       4.99509913       0.98466398       4.99505723       0.15833300      -0.03379100      -0.48156900
Mo       6.68923353       1.95027012       3.25079904      -0.28809700      -0.63910500       0.06926800
Se       8.33952888       0.94867563       1.53093000       0.20320500       0.28540400       0.25785200
Se       8.36975866       0.95597702       4.92347137      -0.08198400       0.28996600       0.37286800
Mo      10.04041702       1.94273313       3.25712344      -0.14401900      -0.54672700      -0.46677000
Se      11.70495630       0.98064151       1.55713386      -0.05800700      -0.08887500       0.02561500
Se      11.71692765       0.95657688       4.96236273      -0.07127300       0.16422300      -0.08420100
Mo      13.36667810       1.93644783       3.24771719       0.19379000       0.21965000      -0.09531500
Se      15.00755502       0.94049605       1.53101615       0.31230000       0.29978800       0.26720800
Se      15.03411648       0.95866314       4.94997484       0.04855100       0.10426200      -0.01481000
Se      -0.01022007       3.86014025       1.54724647       0.20921200      -0.17246300       0.22090800
Se       0.00085302       3.84848659       4.93094556      -0.06292300      -0.02448300       0.06100900
Mo       1.69050828       4.82066806       3.26658239      -0.54306500       0.27896500      -0.28701200
Se       3.33024239       3.88002461       1.54810490       0.14063400      -0.18372000       0.04003000
Se       3.32356465       3.86958600       4.94383161       0.35388900      -0.01380000       0.18695800
Mo       5.02177068       4.83810465       3.23381770      -0.23786300       0.07159600       0.36612700
Se       6.69573447       3.85160473       1.58471794      -0.13275500       0.17585100      -0.64826500
Se       6.69086939       3.84924295       4.94224747      -0.14725300       0.22623500       0.24812000
Mo       8.32181699       4.85056512       3.24995011       0.72757900       0.01489200       0.19682600
Se      10.01290847       3.87520576       1.54118346      -0.05819000      -0.06636800       0.19465100
Se      10.04084194       3.81998093       4.95855159      -0.22350100       0.44252400      -0.13942700
Mo      11.68717251       4.81676483       3.24467038       0.07293400       0.04736000      -0.11658000
Se      13.37848247       3.89015636       1.52162890      -0.19224500      -0.30712800       0.23492700
Se      13.37759177       3.88922807       4.93028925      -0.10971000      -0.26940000       0.12669400
Mo      15.02933433       4.81846273       3.23418828       0.39259100       0.31668400       0.12404300
Mo       0.02459366       7.74842321       3.25723702      -0.47510300      -0.92596100      -0.17453100
Se       1.69733031       6.74696379       1.57619674      -0.21626800      -0.02274600      -0.20372600
Se       1.67367406       6.77373072       4.95950021       0.12829100      -0.15289300      -0.03643300
Mo       3.35399395       7.71085474       3.23926041       0.45696600       0.02545900       0.08935600
Se       5.00867971       6.76372314       1.54778797       0.07362600       0.00420300       0.03423100
Se       5.01867588       6.72045618       4.93337068       0.01126900       0.17017700      -0.06025800
Se       8.34425599       6.76028481       1.55457467      -0.05725200       0.01984800       0.10891400
Se       8.36663218       6.75079717       4.95223899      -0.04460700       0.10625600      -0.05776000
Mo      10.02082412       7.71060013       3.25845602      -0.33510700      -0.12682000      -0.19446700
Se      11.70412345       6.75298819       1.56160786      -0.16149900      -0.05782700      -0.15042700
Se      11.66803428       6.72210969       4.94769063       0.25453100       0.17114700       0.04104600
Mo      13.35579412       7.69617760       3.24866868       0.52264600       0.50703600       0.28409500
Se      15.06270446       6.75798713       1.54378585      -0.09695400       0.05443400       0.20471800
Se      15.05267223       6.76268268       4.95426909      -0.09270700      -0.13802700      -0.22948700
Se       0.02111238       9.60123713       1.54462057      -0.05031700       0.53023500      -0.14695400
Se      -0.01968411       9.62068437       4.92689535       0.36812000       0.48693800       0.50953900
Mo       1.66801360      10.60491936       3.24684344       0.25462000      -0.02832100       0.08287100
Se       3.34022789       9.64180122       1.52070356       0.09650300       0.08387600       0.28704800
Se       3.35078815       9.61993452       4.94825760      -0.03640200       0.18142200      -0.04119100
Mo       5.01077361      10.61374080       3.25060046       0.21644600      -0.23640200      -0.09914300
Se       6.68696346       9.64357911       1.57014727       0.01126300      -0.00354400       0.07196200
Se       6.67287204       9.65509418       4.94533033      -0.02906900      -0.02844100      -0.13668200
Mo       8.36035596      10.60339876       3.24797563      -0.44314100      -0.05123500       0.00902800
Se      10.01819803       9.64778333       1.54162955       0.03025200      -0.10548500       0.00530400
Se      10.01439332       9.62850868       4.94112917       0.17608900       0.12270700       0.12940000
Mo      11.69760696      10.60558630       3.23598073       0.19156600      -0.19848000       0.22316400
Se      13.37516125       9.64056303       1.54284246       0.09469000      -0.00844800       0.27623900
Se      13.42375787       9.66626750       4.97234822      -0.43612100      -0.19893800      -0.50008700
Mo      15.07759543      10.63282719       3.24972845      -0.49714900      -0.65969200      -0.23478700
Mo      -0.01559751      13.48664651       3.28018568       0.38750500       0.57134300      -0.84536100
Se       1.63992844      12.53958989       1.55416246       0.14323000      -0.00200600       0.06521600
Se       1.69762044      12.55448693       4.96701848      -0.18996300      -0.22014200      -0.20413500
Mo       3.33099921      13.51756253       3.23422957       0.02436600       0.14956700       0.15746500
Se       5.04783621      12.57778511       1.55932474      -0.39214300      -0.31617000      -0.17430200
Se       4.97765927      12.53888953       4.94794613       0.41585300       0.19531500      -0.28919600
Mo       6.70422655      13.52628728       3.21686050      -0.31135000      -0.39735900       1.21291200
Se       8.33863125      12.53730658       1.55050816       0.29445500      -0.06713900      -0.15565400
Se       8.36626822      12.54436321       4.95284675      -0.14305800      -0.03269500      -0.14582200
Mo      10.03087183      13.47813438       3.24551258      -0.02297200       0.70828400      -0.09242300
Se      11.69873420      12.54511715       1.54918020       0.11969200      -0.08294700      -0.00279100
Se      11.69395226      12.51779078       4.92465251       0.09525200       0.07628900       0.28092800
Mo      13.38121005      13.50392254       3.26200059      -0.24714900      -0.02205800      -0.51560700
Se      15.04195532      12.50565000       1.55360016       0.03346900       0.44742800      -0.07219100
Se      15.05528500      12.56038188       4.93270310      -0.19553300      -0.22678000       0.57257300
Se      -0.00503129      15.45162384       1.53170869      -0.12713500      -0.32615100       0.33785700
Se       0.00302407      15.43717876       4.93432546      -0.14769300       0.02727400       0.19215500
Mo       1.65248111      16.39253276       3.24145666       0.55048500       0.06351500      -0.03675400
Se       3.34884040      15.45096337       1.54445827      -0.25441400      -0.08306900      -0.04996800
Se       3.35418063      15.43865871       4.96775141      -0.39860100      -0.08760900      -0.20032500
Mo       4.96667186      16.41046615       3.26248896       0.60824400       0.38708900      -0.04871700
Se       6.66307706      15.44087498       1.58180801       0.05436100       0.37838700      -0.30357200
Se       6.66429383      15.44982922       4.94008766       0.04562900      -0.04548200       0.00357000
Mo       8.34528027      16.42817022       3.26071797       0.14184600      -0.55874700      -0.51435600
Se      10.03998967      15.42984698       1.52553872      -0.10104500       0.08248600       0.58726800
Se      10.01395135      15.44257905       4.94638245       0.12536300      -0.13954700      -0.17402700
Mo      11.72286951      16.40863968       3.26171712      -0.62247500      -0.09015100      -0.48690600
Se      13.35973917      15.43226741       1.53341544       0.16061400      -0.00336900       0.31122600
Se      13.34663187      15.43666110       4.94343363       0.35106400      -0.00762300       0.18040400
Mo      15.03618001      16.41574143       3.24860176      -0.20516400      -0.45726800      -0.16588900
89
Lattice="16.71105 0.0 0.0 0.0 17.366633 0.0 0.0 0.0 30.0" Properties=species:S:1:pos:R:3:forces:R:3 energy=-416.20115499999883 stress="0.000222 -1.3e-05 9.5e-05 -1.3e-05 2.3e-05 -0.000289 9.5e-05 -0.000289 0.000919" pbc="T T T" 
Mo       0.03060141       1.87088633       3.25848483      -1.16430100       0.72735100      -0.62276900
Se       1.66248493       0.98453484       1.55243211       0.28965900      -0.22363000      -0.01925800
Se       1.68998416       0.94494788       4.91822461      -0.12875200      -0.14740700       0.54765800
Mo       3.33559814       1.95718619       3.28583544       0.14810000      -0.20266900      -0.84075400
Se       4.98538182       1.00458055       1.51165559       0.03827500      -0.10293300       0.84853900
Se       4.97827941       1.00469788       5.04248301       0.27039000      -0.06617200      -0.89682000
Mo       6.69137529       1.96517881       3.25453460      -0.43935300      -1.10731400       0.10766100
Se       8.32553472       0.93550397       1.51019460       0.34998200       0.49041100       0.50008900
Se       8.38342988       0.95043037       4.90754121      -0.16384800       0.52509300       0.61930100
Mo      10.05319648       1.95079139       3.26204566      -0.33246500      -0.81041000      -0.78804200
Se      11.71168937       0.99583636       1.56053902      -0.10077400      -0.19232400       0.04481500
Se      11.73584957       0.95009588       4.98096073      -0.12479000       0.28971100      -0.23478900
Mo      13.36640433       1.94559836       3.24666499       0.34653600       0.32397700      -0.15056400
Se      14.97789818       0.91905477       1.51040602       0.53577100       0.52562500       0.48030500
Se      15.02868883       0.95361515       4.95663122       0.09088500       0.17905900      -0.08485200
Se      -0.01820344       3.85897330       1.54286120       0.37334600      -0.28518300       0.39440800
Se       0.00095895       3.83708839       4.91893121      -0.11480900      -0.02542600       0.09065100
Mo       1.70511157       4.81995721       3.28301630      -0.99813900       0.45882400      -0.52151500
Se       3.31960330       3.89919352       1.54245266       0.24324600      -0.32341500       0.13470600
Se       3.30870344       3.88004046       4.94669323       0.63457900      -0.04075300       0.32366000
Mo       5.02808478       4.85328556       3.22297946      -0.45874300      -0.30106200       0.58528300
Se       6.70576154       3.84593100       1.60833650      -0.24776500       0.29380800      -1.04738500
Se       6.69570582       3.84169316       4.94417773      -0.25290600       0.37471300       0.33634000
Mo       8.29438494       4.87803728       3.25404194       1.35943500      -0.35584800       0.27567600
Se       9.99806510       3.89074840       1.53030622      -0.11296600      -0.14995200       0.40523200
Se      10.05277291       3.78492574       4.97258644      -0.38748400       0.82133700      -0.24434700
Mo      11.67703723       4.80971067       3.24024585       0.15475600       0.07218300      -0.20275000
Se      13.38606173       3.91830897       1.49098052      -0.33451800      -0.52930800       0.44663900
Se      13.38522295       3.91684310       4.91843069      -0.21054200      -0.48733800       0.20801500
Mo      15.02229584       4.81585566       3.22133774       0.68529500       0.55600600       0.19428200
Mo       0.04510524       7.76996607       3.26516671      -0.74376500      -1.68044500      -0.32566800
Se       1.72169612       6.73971980       1.59645680      -0.40570000      -0.02714300      -0.35042400
Se       1.67788350       6.79251062       4.97575538       0.22875800      -0.28271100      -0.11841600
Mo       3.37074781       7.70322568       3.23130412       0.42395500       0.20350200       0.16479400
Se       5.00484230       6.77411056       1.54172049       0.18123600      -0.02023400      -0.08119100
Se       5.02439986       6.68832330       4.92244437       0.06433500       0.37869400       0.09242000
Se       8.33191148       6.76731489       1.55644162      -0.10930900       0.02192200       0.07417500
Se       8.37751092       6.74913355       4.96075328      -0.11053600       0.19590600       0.06174200
Mo      10.01148122       7.70119614       3.26740175      -0.24591800      -0.07528600      -0.38111800
Se      11.70874942       6.75157352       1.56753271      -0.29832400      -0.08409500      -0.18504200
Se      11.64053659       6.69168644       4.95270823       0.44670700       0.35189400       0.02327800
Mo      13.34753035       7.67821722       3.25232056       0.78191500       0.82582400       0.43212300
Se      15.08496137       6.76308346       1.53562168      -0.19857700       0.09065100       0.40320000
Se      15.06465630       6.77025038       4.96282967      -0.15683900      -0.25242500      -0.41229800
Se       0.04217779       9.55934917       1.53312240      -0.11143800       0.95868100      -0.18306200
Se      -0.03544779       9.59835817       4.91627489       0.70670200       0.89527800       0.91353100
Mo       1.66738504      10.59636867       3.24662519       0.41486000      -0.03677300       0.11241500
Se       3.33940781       9.63626122       1.48975975       0.14096800       0.16622600       0.62488500
Se       3.35920252       9.59308643       4.95283362      -0.09214200       0.36881400      -0.18926200
Mo       5.01034835      10.61218665       3.25242984       0.09456100      -0.16437700      -0.18703500
Se       6.68968468       9.63884519       1.58760405       0.01040100      -0.01237600      -0.01881800
Se       6.66058259       9.66192747       4.94573903      -0.04227700      -0.05775500      -0.09535300
Mo       8.36086241      10.59302916       3.24818737      -0.49543100       0.14228000       0.00510600
Se      10.00987611       9.64611611       1.52887899       0.09043300      -0.17685900       0.14412100
Se      10.00392911       9.60980642       4.94045760       0.33463700       0.24556500       0.11944400
Mo      11.69935533      10.59602608       3.22593227       0.28575800      -0.31702500       0.33658700
Se      13.38285631       9.63263653       1.53456958       0.15387300      -0.02207200       0.52342200
Se      13.47499367       9.68255166       4.99630779      -0.81142600      -0.35042200      -0.86340500
Mo      15.11133206      10.64676316       3.24937615      -0.94310100      -1.14235000      -0.35796900
Mo      -0.02774322      13.47094895       3.30508264       0.74049600       0.98809500      -1.48150500
Se       1.60964080      12.53652457       1.55505445       0.32759500       0.00504000       0.18242300
Se       1.72261629      12.56408270       4.98896053      -0.38518100      -0.39682300      -0.43503200
Mo       3.31965009      13.52950129       3.22175038       0.09801700       0.11833500       0.25701300
Se       5.07857956      12.61022076       1.56263179      -0.74310000      -0.60860400      -0.25562200
Se       4.94590355      12.53748612       4.94920830       0.68212100       0.30056500      -0.49432000
Mo       6.72158705      13.54183618       3.19696362      -0.49046700      -0.62385700       2.02750800
Se       8.32481491      12.53108558       1.54495838       0.54542700      -0.11120200      -0.18841900
Se       8.37560882      12.54582292       4.96089436      -0.23053300      -0.07279000      -0.28644300
Mo      10.03504631      13.45504908       3.24218139      -0.13447000       1.10728600      -0.17208400
Se      11.70121495      12.54671794       1.54407418       0.19077700      -0.17215900       0.04743100
Se      11.69123210      12.49321029       4.90883632       0.17054400       0.15565300       0.44378600
Mo      13.39153346      13.50014149       3.27145393      -0.40244400      -0.03253600      -0.87523700
Se      15.04442495      12.47306741       1.55214386       0.06244500       0.84205100      -0.12124900
Se      15.06864504      12.57588781       4.92875845      -0.39263500      -0.47197800       0.98937700
Se      -0.01177266      15.46278528       1.51271812      -0.20951100      -0.52620700       0.60718700
Se       0.00434844      15.43770375       4.92735823      -0.25692900       0.04391200       0.28655200
Mo       1.63878831      16.38361221       3.23451950       0.92459400       0.14323400      -0.07087500
Se       3.35257565      15.46432481       1.53395026      -0.44829700      -0.14415500      -0.02209600
Se       3.36168297      15.43928314       4.99057759      -0.70706300      -0.15253400      -0.37865700
Mo       4.92467084      16.42318109       3.27705246       1.04704600       0.61977300      -0.13200300
Se       6.64171715      15.44947677       1.60665644       0.10717200       0.66545500      -0.51106900
Se       6.64409993      15.46253079       4.93683827       0.11490000      -0.06571400      -0.00432900
Mo       8.33613016      16.44975433       3.26883932       0.23581200      -0.98699700      -0.89196800
Se      10.05253246      15.42346223       1.50313150      -0.18448000       0.14320900       1.00001500
Se      10.00242666      15.44663242       4.94745867       0.23050300      -0.23275200      -0.33381900
Mo      11.74262410      16.41479376       3.27116903      -1.03568200      -0.13803000      -0.83275200
Se      13.35226178      15.42735816       1.51580396       0.26618800      -0.00947500       0.56975000
Se      13.32801264      15.43618019       4.94576671       0.62305000      -0.04360700       0.26148200
Mo      15.03023488      16.42548390       3.24775255      -0.30367200      -0.80429700      -0.25994100
89
Lattice="16.71105 0.0 0.0 0.0 17.366633 0.0 0.0 0.0 30.0" Properties=species:S:1:pos:R:3:forces:R:3 energy=-415.14755499999956 stress="0.000389 -1.9e-05 0.000142 -1.9e-05 4.7e-05 -0.00042 0.000142 -0.00042 0.001525" pbc="T T T" 
Mo       0.03224864       1.84646022       3.25585139      -1.36350900       0.93138300      -0.66035000
Se       1.66236752       0.99243568       1.55096849       0.34545600      -0.31418600      -0.02014700
Se       1.69902197       0.93083075       4.91302282      -0.23624500      -0.13343500       0.57590900
Mo       3.33362152       1.97017568       3.29641511       0.16923500      -0.18039700      -0.96385700
Se       4.96952428       1.02623901       1.50099684       0.07973600      -0.15532700       1.07233900
Se       4.96233474       1.02703828       5.08558934       0.32696900      -0.11078600      -1.22003100
Mo       6.68911972       1.97057837       3.26002647      -0.48374100      -1.26752900       0.11733700
Se       8.31390252       0.92666846       1.49270651       0.43106500       0.60931400       0.65069200
Se       8.39713026       0.95085556       4.89718188      -0.24831700       0.60835700       0.74045000
Mo      10.06437255       1.95139510       3.25928701      -0.50939300      -0.85873700      -0.86278100