96
Lattice="23.57118 0.0 0.0 0.0 13.609544 0.0 0.0 0.0 20.0" Properties=species:S:1:pos:R:3:forces:R:3 energy=-428.8434759999982 stress="-0.004902 1e-06 0.000373 1e-06 -0.00623 -6e-06 0.000373 -6e-06 -0.02188" pbc="T T T" 
Mo      -2.78654100      -0.85095000      -0.04637700      -0.09443500      -0.00156800      -0.10489900
Se      -0.87836600      -0.85022600       1.61492300       0.32903300      -0.00078300       1.44400500
Se      -1.74722900       0.85011000      -1.61125700      -0.32278700      -0.00008200      -1.44649600
Mo       0.16132300       0.85083100       0.04996300       0.10087300       0.00253400       0.10715100
Se       2.18522100       0.85012700       1.58636300      -0.38452800       0.00188800       1.28726300
Se       1.08277900      -0.85024600      -1.58265700       0.38284400      -0.00095300      -1.29341300
Mo      -2.78654000       2.55143600      -0.04637700      -0.09442500      -0.00150200      -0.10488000
Se      -0.87836500       2.55216000       1.61492300       0.32902300      -0.00074800       1.44384800
Se      -1.74722800       4.25249600      -1.61125700      -0.32279000      -0.00010300      -1.44632000
Mo       0.16132400       4.25321700       0.04996300       0.10086200       0.00248800       0.10713900
Se       2.18522200       4.25251300       1.58636300      -0.38454500       0.00187200       1.28708500
Se       1.08278000       2.55214000      -1.58265700       0.38284900      -0.00093300      -1.29323800
Mo       3.10625400      -0.85095000      -0.04637700      -0.09873600      -0.00270000      -0.10205200
Se       5.01442900      -0.85022600       1.61492300       0.33109700       0.00040800       1.43716700
Se       4.14556600       0.85011000      -1.61125700      -0.32790800       0.00110000      -1.43855000
Mo       6.05411800       0.85083100       0.04996300       0.09648800       0.00244600       0.10600300
Se       8.07801600       0.85012700       1.58636300      -0.39139300       0.00054300       1.29921000
Se       6.97557400      -0.85024600      -1.58265700       0.37738300      -0.00189300      -1.29315000
Mo       3.10625500       2.55143600      -0.04637700      -0.09872600      -0.00263500      -0.10203400
Se       5.01443000       2.55216000       1.61492300       0.33108700       0.00044200       1.43701000
Se       4.14556700       4.25249600      -1.61125700      -0.32791100       0.00108000      -1.43837300
Mo       6.05411900       4.25321700       0.04996300       0.09647700       0.00240000       0.10599100
Se       8.07801700       4.25251300       1.58636300      -0.39141100       0.00052500       1.29903400
Se       6.97557500       2.55214000      -1.58265700       0.37738800      -0.00187200      -1.29297400
Mo      -2.78653900       5.95382200      -0.04637700      -0.09443200      -0.00163200      -0.10487900
Se      -0.87836400       5.95454600       1.61492300       0.32902300      -0.00080500       1.44376700
Se      -1.74722700       7.65488200      -1.61125700      -0.32278900      -0.00016300      -1.44637700
Mo       0.16132500       7.65560300       0.04996300       0.10085400       0.00235000       0.10714000
Se       2.18522300       7.65489900       1.58636300      -0.38454000       0.00181500       1.28714500
Se       1.08278100       5.95452600      -1.58265700       0.38291600      -0.00104800      -1.29316000
Mo      -2.78653800       9.35620800      -0.04637700      -0.09446900      -0.00168800      -0.10489300
Se      -0.87836300       9.35693200       1.61492300       0.32902000      -0.00083400       1.44393300
Se      -1.74722600      11.05726800      -1.61125700      -0.32280000      -0.00013700      -1.44654300
Mo       0.16132600      11.05798900       0.04996300       0.10086400       0.00239700       0.10715900
Se       2.18522400      11.05728500       1.58636300      -0.38453400       0.00182700       1.28733100
Se       1.08278200       9.35691200      -1.58265700       0.38289900      -0.00107400      -1.29332600
Mo       3.10625600       5.95382200      -0.04637700      -0.09873300      -0.00276500      -0.10203200
Se       5.01443100       5.95454600       1.61492300       0.33080800       0.00067000       1.43712500
Se       4.14556800       7.65488200      -1.61125700      -0.32791100       0.00102000      -1.43843000
Mo       6.05412000       7.65560300       0.04996300       0.09646900       0.00226200       0.10599200
Se       8.07801800       7.65489900       1.58636300      -0.39140600       0.00046700       1.29909400
Se       6.97557600       5.95452600      -1.58265700       0.37739500      -0.00192600      -1.29288900
Mo       3.10625700       9.35620800      -0.04637700      -0.09874500      -0.00283000      -0.10204300
Se       5.01443200       9.35693200       1.61492300       0.33080500       0.00064100       1.43729200
Se       4.14556900      11.05726800      -1.61125700      -0.32792100       0.00104600      -1.43859700
Mo       6.05412100      11.05798900       0.04996300       0.09648000       0.00230900       0.10601100
Se       8.07801900      11.05728500       1.58636300      -0.39138800       0.00046600       1.29928600
Se       6.97557700       9.35691200      -1.58265700       0.37755500      -0.00181300      -1.29307200
Mo       8.99904900      -0.85095000      -0.04637700      -0.09443200      -0.00156800      -0.10489800
Se      10.90722400      -0.85022600       1.61492300       0.32903300      -0.00078300       1.44398300
Se      10.03836100       0.85011000      -1.61125700      -0.32278800      -0.00008200      -1.44647300
Mo      11.94691300       0.85083100       0.04996300       0.10086700       0.00253400       0.10715000
Se      13.97081100       0.85012700       1.58636300      -0.38453200       0.00188800       1.28725200
Se      12.86836900      -0.85024600      -1.58265700       0.38284200      -0.00095300      -1.29339700
Mo       8.99905000       2.55143600      -0.04637700      -0.09442200      -0.00150200      -0.10487900
Se      10.90722500       2.55216000       1.61492300       0.32902200      -0.00074800       1.44382600
Se      10.03836200       4.25249600      -1.61125700      -0.32279100      -0.00010300      -1.44629600
Mo      11.94691400       4.25321700       0.04996300       0.10085600       0.00248800       0.10713900
Se      13.97081200       4.25251300       1.58636300      -0.38454900       0.00187200       1.28707400
Se      12.86837000       2.55214000      -1.58265700       0.38284700      -0.00093300      -1.29322100
Mo      14.89184400      -0.85095000      -0.04637700      -0.09874600      -0.00270000      -0.10205100
Se      16.80001900      -0.85022600       1.61492300       0.33109300       0.00040800       1.43717300
Se      15.93115600       0.85011000      -1.61125700      -0.32791200       0.00110000      -1.43855100
Mo      17.83970800       0.85083100       0.04996300       0.09648000       0.00244600       0.10600400
Se      19.86360600       0.85012700       1.58636300      -0.39139500       0.00054300       1.29923100
Se      18.76116400      -0.85024600      -1.58265700       0.37738000      -0.00189300      -1.29316700
Mo      14.89184500       2.55143600      -0.04637700      -0.09873600      -0.00263500      -0.10203300
Se      16.80002000       2.55216000       1.61492300       0.33108200       0.00044200       1.43701600
Se      15.93115700       4.25249600      -1.61125700      -0.32791500       0.00108000      -1.43837400
Mo      17.83970900       4.25321700       0.04996300       0.09646800       0.00240000       0.10599200
Se      19.86360700       4.25251300       1.58636300      -0.39141300       0.00052500       1.29905500
Se      18.76116500       2.55214000      -1.58265700       0.37738500      -0.00187200      -1.29299100
Mo       8.99905100       5.95382200      -0.04637700      -0.09442900      -0.00163200      -0.10487800
Se      10.90722600       5.95454600       1.61492300       0.32902300      -0.00080500       1.44374400
Se      10.03836300       7.65488200      -1.61125700      -0.32279100      -0.00016300      -1.44635300
Mo      11.94691500       7.65560300       0.04996300       0.10084900       0.00235000       0.10713900
Se      13.97081300       7.65489900       1.58636300      -0.38454400       0.00181500       1.28713400
Se      12.86837100       5.95452600      -1.58265700       0.38291300      -0.00104800      -1.29314300
Mo       8.99905200       9.35620800      -0.04637700      -0.09446700      -0.00168800      -0.10489200
Se      10.90722700       9.35693200       1.61492300       0.32902000      -0.00083400       1.44391100
Se      10.03836400      11.05726800      -1.61125700      -0.32280100      -0.00013700      -1.44652000
Mo      11.94691600      11.05798900       0.04996300       0.10085900       0.00239700       0.10715800
Se      13.97081400      11.05728500       1.58636300      -0.38453800       0.00182700       1.28732000
Se      12.86837200       9.35691200      -1.58265700       0.38289600      -0.00107400      -1.29331000
Mo      14.89184600       5.95382200      -0.04637700      -0.09874300      -0.00276500      -0.10203200
Se      16.80002100       5.95454600       1.61492300       0.33080300       0.00067000       1.43713100
Se      15.93115800       7.65488200      -1.61125700      -0.32791500       0.00102000      -1.43843100
Mo      17.83971000       7.65560300       0.04996300       0.09646000       0.00226200       0.10599300
Se      19.86360800       7.65489900       1.58636300      -0.39140800       0.00046700       1.29911500
Se      18.76116600       5.95452600      -1.58265700       0.37739200      -0.00192600      -1.29290600
Mo      14.89184700       9.35620800      -0.04637700      -0.09875500      -0.00283000      -0.10204300
Se      16.80002200       9.35693200       1.61492300       0.33080000       0.00064100       1.43729800
Se      15.93115900      11.05726800      -1.61125700      -0.32792500       0.00104600      -1.43859800
Mo      17.83971100      11.05798900       0.04996300       0.09647100       0.00230900       0.10601100
Se      19.86360900      11.05728500       1.58636300      -0.39138900       0.00046600       1.29930600
Se      18.76116700       9.35691200      -1.58265700       0.37755200      -0.00181300      -1.29308900
96
Lattice="23.57118 0.0 0.0 0.0 13.609544 0.0 0.0 0.0 20.0" Properties=species:S:1:pos:R:3:forces:R:3 energy=-430.38927599999806 stress="-0.000931 -0.000185 -0.000159 -0.000185 -0.000843 0.000243 -0.000159 0.000243 -0.015113" pbc="T T T" 
Mo      -2.75610520      -0.91199140      -0.03292607      -0.78796500       0.15732800       0.09791300
Se      -0.88104634      -0.83327238       1.64767579       0.39340700      -0.33069400       1.10221700
Se      -1.73768185       0.83192338      -1.66746516      -0.40115400       0.05141600      -0.34224000
Mo       0.15328304       0.88153394       0.09024092      -0.21006000       0.25668600      -0.58009000
Se       2.15208019       0.88694854       1.57263641       0.11275800      -0.22335400       1.46640600
Se       1.05627892      -0.81469699      -1.51782714       0.45819700      -0.34672300      -1.88090600
Mo      -2.77937351       2.59015241      -0.04675301      -0.22380200      -0.35593300      -0.48509500
Se      -0.90258443       2.52268737       1.60755754       0.33667200       0.48850200       1.71921000
Se      -1.72763575       4.23519329      -1.68003877      -0.31757900       0.18492900      -0.51112600
Mo       0.19069580       4.27906161       0.06832972       0.25421100      -0.31394600      -0.41979400
Se       2.19046528       4.28235528       1.62345987      -0.26505400      -0.10241200       1.13376800
Se       1.12488994       2.53555970      -1.57877768      -0.18480000       0.11412500      -1.42711800
Mo       3.10121183      -0.84168816      -0.05079512       0.24847500      -0.32915300      -0.26339300
Se       4.96198550      -0.89685861       1.60357639       0.86065700       0.31659600       1.27582800
Se       4.12628844       0.83770147      -1.63290384      -0.20085800       0.09189400      -1.20178700
Mo       6.03635177       0.85495334       0.04065158      -0.00233800       0.39091600       0.21696100
Se       8.06903039       0.82878361       1.59203894      -0.43691300       0.04309500       1.08570500
Se       7.02362187      -0.85861697      -1.57203989      -0.11071800       0.06984900      -1.07840000
Mo       3.08388528       2.59078741      -0.05989584       0.17337700       0.29804900      -0.01196100
Se       4.98476874       2.56855593       1.64804869       0.40137100      -0.34636100       1.11848400
Se       4.15566463       4.27863880      -1.66991023      -0.30360300      -0.04234000      -0.43039400
Mo       6.07726307       4.23824008       0.10555215       0.26020200      -0.05954600      -0.45605000
Se       8.08337680       4.23068002       1.61514417      -0.12609100      -0.03088400       1.34028300
Se       6.91208109       2.60147699      -1.60874985       0.69337100      -0.47227200      -1.04200600
Mo      -2.81147857       5.97739746      -0.06722751       0.13705800      -0.66644800       0.60281900
Se      -0.84587210       5.88232418       1.67079142      -0.10528000       0.75906100       0.40244500
Se      -1.77824403       7.64047758      -1.64902360      -0.20950400       0.28114600      -0.86207100
Mo       0.17827940       7.70707335       0.00028657      -0.25849200      -0.52502900       0.89733200
Se       2.19193884       7.71052187       1.58973276      -0.46129100      -0.41273300       1.01599300
Se       1.06771975       5.94070120      -1.64018187       0.40318400       0.03273400      -0.73108900
Mo      -2.73633095       9.41753981      -0.02884747       0.16709600       0.10813400       0.10350900
Se      -0.82088066       9.34284763       1.68854821       0.05819700      -0.03146500       0.65458700
Se      -1.74839911      11.09323258      -1.61931872       0.00985900      -0.37375000      -1.78928700
Mo       0.17737008      11.03941160       0.03805348      -0.53947300      -0.53871500       0.45924200
Se       2.16742937      11.07429341       1.60112955      -0.19064500      -0.20635800       0.88952200
Se       1.10224263       9.29705866      -1.63209848       0.41067300       0.74773100      -1.13890700
Mo       3.08188322       5.96241955      -0.04903166      -0.43115200      -0.34444100       0.04039800
Se       5.03968273       5.94934811       1.66413106      -0.14421900       0.18326300       0.77004000
Se       4.13010000       7.63853078      -1.62212541      -0.08107700      -0.01972800      -1.24095400
Mo       6.06689861       7.65726152       0.06198572      -0.01152800       0.47479600      -0.48486500
Se       8.01441138       7.59311012       1.62176518       0.32329500       0.15343800       0.78634900
Se       6.95413753       5.90644996      -1.60909424       0.47320900       0.32893900      -0.70241300
Mo       3.14678429       9.36398352      -0.06373787       0.18277000       0.14058700       0.47425500
Se       5.04476465       9.37264301       1.66909479       0.02395400      -0.19723300       0.98567600
Se       4.17509107      10.97085070      -1.66374333      -0.66504900       0.88653600      -1.34686000
Mo       6.02001920      11.00333111       0.02011672       0.10160100      -0.48124300       0.02227100
Se       8.05758640      11.04044948       1.61395820      -0.60083700       0.09762900       1.02728000
Se       6.98033926       9.34188062      -1.67179370       0.40590600      -0.18770200      -0.32683600
Mo       9.01483340      -0.90008159      -0.03694837       0.37553200       0.29567000       0.49451600
Se      10.90599301      -0.84719621       1.65526235       0.30474600      -0.09371200       1.21291700
Se      10.03394546       0.83948074      -1.61658751      -0.40595600      -0.10554900      -1.26335100
Mo      11.93159935       0.85721675       0.05918593       0.51220500      -0.79397100       0.33117700
Se      13.97452440       0.83212548       1.61706477      -0.40334900       0.14636100       1.08404800
Se      12.86008770      -0.85140751      -1.63433908       0.28514700      -0.05471900      -0.79718100
Mo       8.96940555       2.51745830      -0.05588914      -0.82802100       0.28071100      -0.20365700
Se      10.91272137       2.53984579       1.62132509       0.22067500       0.41332800       1.01540000
Se      10.04585501       4.23637113      -1.66011566       0.09196100      -0.07386900      -0.37670700
Mo      12.04756127       4.28751885       0.09970605       0.06413900       0.28962300      -0.59016900
Se      14.04272479       4.29374342       1.62440937      -0.48091900      -0.38538900       1.34858000
Se      12.84207207       2.50979729      -1.54542537       0.38520800       0.61277700      -1.63893500
Mo      14.83632437      -0.85755751      -0.04940859       0.20542300      -0.08068400      -0.17058600
Se      16.85503011      -0.82642360       1.68575701      -0.21195200      -0.00326100       0.17525300
Se      15.90156647       0.86806014      -1.66790978      -0.00436500      -0.21035300      -0.43194200
Mo      17.90014546       0.91179891       0.05869726      -0.43627600      -0.19427900      -0.35706000
Se      19.79069608       0.84090940       1.62422935       0.63974800      -0.02980500       0.88607300
Se      18.81026419      -0.81039636      -1.67335551       0.01400500      -0.19543600       0.08226100
Mo      14.85891190       2.53913367      -0.05203290      -0.00839800      -0.33383300       0.28034600
Se      16.82549392       2.55570812       1.66318956      -0.08581900       0.06621700       0.69605000
Se      15.93001881       4.19005409      -1.64621037      -0.37029200       0.52539600      -0.76064700
Mo      17.84391295       4.25599134       0.04411316       0.27372900      -0.21439900       0.07815300
Se      19.84732376       4.20820052       1.58161101      -0.18339500       0.56728100       1.47292800
Se      18.79547588       2.54624735      -1.58571773       0.12528500       0.24123700      -1.67358000
Mo       8.99865547       5.88799487      -0.05240185      -0.33238300       0.24590700      -0.40235100
Se      10.94253868       5.98810382       1.62542749      -0.02688300      -0.19665200       1.16662900
Se      10.02013079       7.68162498      -1.68176591      -0.33615900      -0.28476100      -0.28251200
Mo      11.95227189       7.65705858       0.03211309      -0.17739400       0.18384900      -0.29702300
Se      13.92197817       7.63755947       1.60280085       0.07749900       0.39192400       1.03535400
Se      12.88941931       5.97919915      -1.62993079       0.17955800      -0.26827300      -0.89751800
Mo       9.01544372       9.35715699      -0.00871080      -0.61689900      -0.16543200      -0.51607700
Se      10.81970665       9.37183070       1.67716931       1.21526500      -0.16985300       0.82275500
Se       9.99137824      11.05944654      -1.59558466       0.10048100      -0.38629000      -1.86889100
Mo      11.91366056      11.07919107       0.04594339       0.18296700      -0.06243300       0.08520500
Se      13.93978713      11.10929065       1.64014642      -0.17783000      -0.64522900       0.42203800
Se      12.89958773       9.34505492      -1.66533902      -0.09211400       0.33141800      -0.46138400
Mo      14.86887852       5.96511745      -0.04517781       0.23651800       0.25020900      -0.28244600
Se      16.85936639       5.96876445       1.67500819      -0.15525000      -0.01632500       0.58109800
Se      15.90652648       7.64549769      -1.68276576      -0.05185200       0.06388400      -0.76190400
Mo      17.79995404       7.65629993       0.04954071      -0.03961600       0.24613200      -0.11744000
Se      19.84841985       7.68408805       1.61384698      -0.11919400      -0.19709100       0.49760000
Se      18.75420817       5.97391829      -1.59632213       0.22757800      -0.01177300      -1.24072800
Mo      14.85679939       9.33003029      -0.08894933       0.48627100       0.35499800       0.54329500
Se      16.82045789       9.38629532       1.66652457      -0.25059900      -0.18274800       0.63133100
Se      15.98200478      11.09130344      -1.67993754      -0.58969700      -0.18137700      -0.20703600
Mo      17.85982559      11.05504534       0.09345908       0.20619600       0.38828700      -0.83882000
Se      19.83873267      11.02108562       1.65625384       0.07224700       0.26495600       1.03339500
Se      18.79633664       9.40829415      -1.61933833       0.27071000      -0.30694400      -0.45436000
96
Lattice="23.57118 0.0 0.0 0.0 13.609544 0.0 0.0 0.0 20.0" Properties=species:S:1:pos:R:3:forces:R:3 energy=-432.29587600000013 stress="0.006099 -0.000216 -0.000685 -0.000216 0.006872 0.000354 -0.000685 0.000354 -0.001989" pbc="T T T" 
Mo      -2.75688026      -0.95524682      -0.01887643      -0.82758600      -0.05890100       0.32817100
Se      -0.86785206      -0.83253895       1.71498659       0.26880800      -0.36203600       0.12299900
Se      -1.74604043       0.81979781      -1.72516345      -0.32869900       0.08495000       0.52439500
Mo       0.14121196       0.91437591       0.10335703      -0.10285800       0.53418800      -0.77312800
Se       2.13017099       0.90689673       1.61738017       0.35103500      -0.31783300       0.66066700
Se       1.05329193      -0.80057586      -1.53861582       0.31177800      -0.49295200      -1.17922900
Mo      -2.78139961       2.60973663      -0.06117688      -0.37429300      -0.27279800      -0.19576100
Se      -0.90846863       2.51850248       1.66750455       0.18589400       0.62636100       0.94384900
Se      -1.72508827       4.22885129      -1.75346977      -0.24267500       0.23055700       0.39362600
Mo       0.22235715       4.28859782       0.06930563       0.42169500      -0.58776200      -0.64406500
Se       2.18390703       4.30151334       1.69594714      -0.12719200      -0.16793600       0.44247800
Se       1.15110302       2.52702210      -1.63122353      -0.43582900       0.15631600      -0.93629900
Mo       3.10532425      -0.84497056      -0.06168728       0.45610400      -0.44239600      -0.02732800
Se       4.95420329      -0.92110940       1.64337914       0.87151700       0.37495200       0.41517200
Se       4.10340655       0.83186591      -1.69570350      -0.04003300       0.17625600      -0.33462500
Mo       6.02240782       0.87145355       0.03953733      -0.11142200       0.74131800      -0.02513600
Se       8.04512668       0.81385860       1.63840593      -0.26346100       0.07439300       0.41329600
Se       7.05684798      -0.86289241      -1.60451567      -0.41823300      -0.00307300      -0.20783900
Mo       3.07140414       2.63059937      -0.06977563       0.17475200       0.26830500       0.35419500
Se       4.97752320       2.56844892       1.71709875       0.34130800      -0.32754300       0.32033600
Se       4.15129429       4.29734420      -1.73286573      -0.24398200      -0.07239400       0.43180800
Mo       6.10406420       4.22331526       0.13446609       0.43229800      -0.44729300      -0.65862700
Se       8.08240744       4.21268889       1.68852168       0.05708100       0.00727400       0.62436000
Se       6.88929428       2.62180151      -1.66988717       0.61581700      -0.57745500      -0.49318200
Mo      -2.82686547       5.97426280      -0.06531083       0.17544400      -0.97269400       0.63733200
Se      -0.82400812       5.85494878       1.73072170      -0.28532400       0.89483100      -0.38789200
Se      -1.81037111       7.64014325      -1.71104540      -0.00521900       0.36392900       0.12466600
Mo       0.18368600       7.73083973      -0.01175089      -0.30381900      -0.55391500       0.57643700
Se       2.17942006       7.73806269       1.63152055      -0.28237800      -0.52843300       0.31509900
Se       1.07168087       5.93162281      -1.71338506       0.24406400       0.13213100       0.02450900
Mo      -2.69209734       9.46936672      -0.01208003       0.23432400       0.33815100       0.19164900
Se      -0.77398070       9.33053483       1.77167821      -0.18701900      -0.03046700      -0.15586200
Se      -1.74944296      11.10721088      -1.69363178       0.12493500      -0.40401600      -0.96542200
Mo       0.17244966      11.00825393       0.04196115      -0.87926600      -0.62998900       0.13553800
Se       2.14605913      11.07968397       1.64716217       0.01150300      -0.23570000       0.21604100
Se       1.13328913       9.27829619      -1.71298087       0.25642000       0.79466900      -0.15281400
Mo       3.04867118       5.95792624      -0.04954339      -0.64483600      -0.51799200       0.21677700
Se       5.05456770       5.95206078       1.73159522      -0.27950400       0.17923800      -0.25312900
Se       4.11434451       7.62521279      -1.67786248       0.02173700       0.00188000      -0.37084500
Mo       6.07673158       7.67450277       0.05664619      -0.03351100       0.84849800      -0.55642400
Se       7.97683793       7.55127369       1.67968822       0.61770800       0.25539000       0.05120000
Se       6.95577393       5.88156872      -1.65716255       0.34700600       0.41465900       0.00273900
Mo       3.18405153       9.37470593      -0.06306355       0.30183100       0.27903200       0.50700100
Se       5.06985450       9.37718874       1.74912619      -0.11891100      -0.26677400       0.12548500
Se       4.17297585      10.93709365      -1.75570636      -0.52722600       1.01174200      -0.50048000
Mo       5.99603214      10.94560067      -0.00261254      -0.14013600      -0.64691100      -0.14428400
Se       8.01868978      11.03093311       1.67463077      -0.43524800       0.08040300       0.24058400
Se       6.99971329       9.32331461      -1.75452672       0.21942900      -0.16200500       0.40683900
Mo       9.03989836      -0.92910928      -0.01491570       0.79450100       0.32564600       0.47577100
Se      10.91694718      -0.84853292       1.73377052       0.17119200      -0.14012900       0.53688100
Se      10.01480552       0.82728787      -1.66845831      -0.29048000      -0.09213800      -0.28592100
Mo      11.93595528       0.83672627       0.07567700       0.59041600      -1.13403600       0.00977100
Se      13.96165225       0.82334107       1.68287143      -0.26275900       0.11974700       0.43195500
Se      12.86489488      -0.85441372      -1.70553292       0.11929400      -0.06828400      -0.07807900
Mo       8.91983871       2.50002990      -0.06871337      -1.07275500       0.43710800       0.13370500
Se      10.92596629       2.54576480       1.66446055       0.12877100       0.46805400      -0.02965600
Se      10.05416376       4.22103418      -1.71350597       0.14808300      -0.08365900       0.44732700
Mo      12.12766356       4.32373897       0.12024758      -0.04561600       0.47857200      -0.70820700
Se      14.07979486       4.31151125       1.70480266      -0.41292200      -0.39891800       0.49036300
Se      12.83646728       2.49983918      -1.57855293       0.23287600       0.68606300      -0.87991900
Mo      14.79867493      -0.86467091      -0.05658223       0.06420700       0.06016000       0.03485000
Se      16.89022704      -0.80845769       1.74848505      -0.39604400      -0.07111700      -0.71047700
Se      15.87784710       0.87411527      -1.72951518       0.13152700      -0.23113700       0.38722600
Mo      17.93430295       0.95370355       0.05447981      -0.41902800      -0.04894100      -0.45411400
Se      19.75758783       0.83268181       1.68833216       0.94369300      -0.00670500       0.22283800
Se      18.84947962      -0.78669825      -1.74209294      -0.16034700      -0.22623400       0.83521400
Mo      14.83260135       2.51888937      -0.04779475      -0.02214800      -0.44461300       0.39453200
Se      16.84286835       2.56093275       1.72781007      -0.19421100       0.05208800      -0.18655600
Se      15.91463291       4.16161634      -1.70256431      -0.26093700       0.65974200       0.18918700
Mo      17.85676265       4.25124807       0.04132682       0.52620400      -0.30812700      -0.19945500
Se      19.82743568       4.19489748       1.63465820       0.02373200       0.57632300       0.91581000
Se      18.82686359       2.55089264      -1.65229036      -0.15081900       0.29403000      -1.11991800
Mo       8.98784687       5.84384622      -0.06870150      -0.39673200       0.14902000      -0.10419000
Se      10.96943720       6.00651831       1.67791714      -0.20222000      -0.28850100       0.24780600
Se       9.99271051       7.69141673      -1.74834013      -0.20918300      -0.39178200       0.58901000
Mo      11.95183103       7.66293615       0.00953043      -0.06075200      -0.06680900      -0.31025400
Se      13.88645239       7.63870757       1.65497196       0.31949800       0.44018200       0.23870500
Se      12.91320066       5.98825334      -1.70145530       0.03481500      -0.29967000      -0.18468000
Mo       9.00874971       9.35357078       0.00521810      -0.69231400       0.02386800      -0.31707300
Se      10.79757640       9.37701493       1.75636857       1.15825000      -0.18408700      -0.23023700
Se       9.95814324      11.04674046      -1.65381040       0.28982800      -0.39211200      -0.98061100
Mo      11.89325074      11.09461046       0.04512208       0.04676000       0.18317100      -0.10065700
Se      13.90841456      11.12557410       1.69873767      -0.01441100      -0.69527200      -0.33972600
Se      12.92098234       9.34816696      -1.74780765      -0.28739800       0.35369300       0.34320200
Mo      14.85784670       5.98195960      -0.05223960       0.23808000       0.38372800      -0.00993600
Se      16.89997342       5.97934155       1.74418687      -0.36637800      -0.00990500      -0.35903200
Se      15.88492007       7.64089929      -1.76779955       0.09248600       0.11970400       0.09986700