83
Lattice="16.71105 0.0 0.0 0.0 17.366633 0.0 0.0 0.0 30.0" Properties=species:S:1:pos:R:3:forces:R:3 energy=-383.42593099999976 stress="0.001697 -5e-06 1e-06 -5e-06 0.001701 3e-06 1e-06 3e-06 3.8e-05" pbc="T T T" 
Mo      -0.00000200       1.92962700       3.24785400       0.00457800      -0.01293900       0.01932300
Se       1.67110700       0.96481200       1.55407500       0.02223700      -0.01128900      -0.05505900
Se       1.67110700       0.96481200       4.94331000       0.02421200      -0.01253100       0.03668000
Mo       3.34220800       1.92962700       3.24785400      -0.15339200      -0.20373600       0.02168400
Se       5.01331700       0.96481200       1.55407500       0.02406300       0.01446400      -0.02463400
Se       5.01331700       0.96481200       4.94331000       0.02411600       0.01486800       0.00552700
Mo       6.68441800       1.92962700       3.24785400      -0.01795900      -0.56669500       0.01888800
Se       8.35552700       0.96481200       1.55407500      -0.02560900       0.01486000      -0.03120200
Se       8.35552700       0.96481200       4.94331000      -0.02567100       0.01301700       0.00859000
Mo      10.02662800       1.92962700       3.24785400       0.18474100      -0.20512300       0.02004900
Se      11.69773700       0.96481200       1.55407500      -0.01189900      -0.01224700      -0.05884700
Se      11.69773700       0.96481200       4.94331000      -0.01191700      -0.01177000       0.03905100
Mo      13.36883800       1.92962700       3.24785400      -0.01747100      -0.00682700       0.02263000
Se      15.03994700       0.96481200       1.55407500      -0.00913000      -0.00337000      -0.05202300
Se      15.03994700       0.96481200       4.94331000      -0.01099400      -0.00478200       0.03349400
Se       0.00000200       3.85925100       1.55407500      -0.01427400      -0.01100700      -0.06053800
Se       0.00000200       3.85925100       4.94331000      -0.01414000      -0.01014100       0.03879700
Mo       1.67110300       4.82406600       3.24785400       0.23135000       0.11762000       0.01853100
Se       3.34221200       3.85925100       1.55407500       0.41159700       0.35757300       0.06030800
Se       3.34221200       3.85925100       4.94331000       0.40956800       0.35829100      -0.07808700
Mo       5.01331300       4.82406600       3.24785400      -0.45270700       0.30943700       0.01379300
Se       6.68442200       3.85925100       1.55407500      -0.00907400       0.70599400       0.15732600
Se       6.68442200       3.85925100       4.94331000      -0.01054300       0.70447500      -0.17374300
Mo       8.35552300       4.82406600       3.24785400       0.42556000       0.31000600       0.01570300
Se      10.02663200       3.85925100       1.55407500      -0.39186300       0.35279100       0.05547600
Se      10.02663200       3.85925100       4.94331000      -0.38893700       0.35088800      -0.07394400
Mo      11.69773300       4.82406600       3.24785400      -0.20009000       0.12517700       0.02272800
Se      13.36884200       3.85925100       1.55407500       0.00290100      -0.00640400      -0.05245300
Se      13.36884200       3.85925100       4.94331000       0.00376900      -0.00593500       0.03328600
Mo      15.03994300       4.82406600       3.24785400      -0.01617500       0.01750600       0.01872300
Mo      -0.00000200       7.71850400       3.24785400      -0.27609700      -0.06468200       0.01891200
Se       1.67110700       6.75368900       1.55407500       0.52040000       0.17383500       0.04760000
Se       1.67110700       6.75368900       4.94331000       0.52076600       0.17356700      -0.06587600
Mo       3.34220800       7.71850400       3.24785400       0.06382300      -0.52583100       0.01216900
Mo      10.02662800       7.71850400       3.24785400      -0.03278000      -0.53018900       0.01253100
Se      11.69773700       6.75368900       1.55407500      -0.50459900       0.16991400       0.04056400
Se      11.69773700       6.75368900       4.94331000      -0.50823700       0.16842500      -0.06075900
Mo      13.36883800       7.71850400       3.24785400       0.26077800      -0.05105700       0.02062700
Se      15.03994700       6.75368900       1.55407500      -0.01017000       0.04218800      -0.06209700
Se      15.03994700       6.75368900       4.94331000      -0.01119400       0.04294300       0.04257200
Se       0.00000200       9.64812800       1.55407500       0.02907700       0.01854600      -0.03273900
Se       0.00000200       9.64812800       4.94331000       0.02911000       0.01665600       0.01029400
Mo       1.67110300      10.61294300       3.24785400      -0.47230500       0.28121300       0.01896100
Se       3.34221200       9.64812800       1.55407500       0.61329200      -0.35420100       0.14929900
Se       3.34221200       9.64812800       4.94331000       0.61291400      -0.35454000      -0.16459600
Mo       5.01331300      10.61294300       3.24785400       0.46463300       0.21905200       0.01369000
Mo       8.35552300      10.61294300       3.24785400      -0.48782500       0.21903000       0.01107500
Se      10.02663200       9.64812800       1.55407500      -0.61353800      -0.35352200       0.15433600
Se      10.02663200       9.64812800       4.94331000      -0.61243500      -0.35566700      -0.16980600
Mo      11.69773300      10.61294300       3.24785400       0.50073900       0.28222200       0.02074500
Se      13.36884200       9.64812800       1.55407500      -0.03073700       0.01810700      -0.02616200
Se      13.36884200       9.64812800       4.94331000      -0.03069600       0.01849900       0.00731100
Mo      15.03994300      10.61294300       3.24785400      -0.01896800      -0.01007800       0.02014600
Mo      -0.00000200      13.50738200       3.24785400       0.01458200      -0.00223500       0.02607300
Se       1.67110700      12.54256700       1.55407500       0.00901300      -0.03910500      -0.02177000
Se       1.67110700      12.54256700       4.94331000       0.01074800      -0.04142500       0.00209300
Mo       3.34220800      13.50738200       3.24785400      -0.08779500       0.24999100       0.02203600
Se       5.01331700      12.54256700       1.55407500       0.09836100      -0.52797900       0.06152200
Se       5.01331700      12.54256700       4.94331000       0.10029000      -0.52731000      -0.07901200
Mo       6.68441800      13.50738200       3.24785400      -0.01688300      -0.25818200       0.01864100
Se       8.35552700      12.54256700       1.55407500      -0.10917200      -0.53186700       0.05339800
Se       8.35552700      12.54256700       4.94331000      -0.11007300      -0.53011100      -0.07372900
Mo      10.02662800      13.50738200       3.24785400       0.11684200       0.24156900       0.01790000
Se      11.69773700      12.54256700       1.55407500       0.01213900      -0.03319600      -0.01543700
Se      11.69773700      12.54256700       4.94331000       0.01112500      -0.03290800      -0.00276000
Mo      13.36883800      13.50738200       3.24785400      -0.02636800      -0.00782500       0.02251100
Se      15.03994700      12.54256700       1.55407500      -0.01024200      -0.00535100      -0.04533100
Se      15.03994700      12.54256700       4.94331000      -0.01196400      -0.00744100       0.02516400
Se       0.00000200      15.43700600       1.55407500      -0.00105300       0.00585800      -0.05795800
Se       0.00000200      15.43700600       4.94331000      -0.00103900       0.00895400       0.03711600
Mo       1.67110300      16.40182100       3.24785400       0.04118400       0.01494200       0.02186500
Se       3.34221200      15.43700600       1.55407500      -0.00827200      -0.00366000      -0.06626600
Se       3.34221200      15.43700600       4.94331000      -0.01095300      -0.00467900       0.04580300
Mo       5.01331300      16.40182100       3.24785400      -0.02331600       0.02081200       0.02111900
Se       6.68442200      15.43700600       1.55407500      -0.01020700       0.02019500      -0.06260300
Se       6.68442200      15.43700600       4.94331000      -0.01125600       0.02088300       0.04284300
Mo       8.35552300      16.40182100       3.24785400       0.00764300       0.00708900       0.01951500
Se      10.02663200      15.43700600       1.55407500       0.02709300      -0.00059800      -0.06079100
Se      10.02663200      15.43700600       4.94331000       0.02773700       0.00005900       0.04098000
Mo      11.69773300      16.40182100       3.24785400       0.00416300       0.02409200       0.02119800
Se      13.36884200      15.43700600       1.55407500      -0.00773600      -0.00086600      -0.06550200
Se      13.36884200      15.43700600       4.94331000      -0.00490200      -0.00179800       0.04486200
Mo      15.03994300      16.40182100       3.24785400      -0.02909200       0.00076800       0.02199400
83
Lattice="16.71105 0.0 0.0 0.0 17.366633 0.0 0.0 0.0 30.0" Properties=species:S:1:pos:R:3:forces:R:3 energy=-383.0184309999986 stress="0.001886 -6.1e-05 0.000128 -6.1e-05 0.001803 -0.000117 0.000128 -0.000117 0.000318" pbc="T T T" 
Mo       0.01810224       1.89917251       3.25468823      -0.66403000       0.35629200      -0.39089900
Se       1.66598293       0.97496716       1.55323478       0.19053300      -0.20031800      -0.04972200
Se       1.68073192       0.95539880       4.92864983       0.00086800      -0.22292300       0.26817800
Mo       3.33816308       1.94369640       3.26852411       0.01456300      -0.27124400      -0.45656000
Se       4.99992643       0.98504537       1.53059331       0.09625600       0.06024100       0.39493700
Se       4.99558430       0.98455997       4.99384750       0.24080000      -0.09652900      -0.56411800
Mo       6.68911165       1.94739994       3.25058055      -0.30841800      -1.11125100       0.08390200
Se       8.33947273       0.94905224       1.53137276       0.15319100       0.24716400       0.33486300
Se       8.36935258       0.95594337       4.92280310      -0.12794000       0.08127200       0.12410800
Mo      10.04076666       1.94254082       3.25686253      -0.07446600      -0.51595500      -0.43055300
Se      11.70460971       0.98056320       1.55684065      -0.15157300      -0.07856400      -0.00735200
Se      11.71643044       0.95678733       4.96192259      -0.16756700       0.17599400      -0.07441200
Mo      13.36665948       1.93636012       3.24751336       0.18341200       0.12644100      -0.09486600
Se      15.00793464       0.94088357       1.53104254       0.32114800       0.26441600       0.24684200
Se      15.03415702       0.95909258       4.94984433       0.04624900       0.20033200       0.06585700
Se      -0.01016908       3.86031140       1.54703877       0.20834700      -0.16706000       0.20099600
Se       0.00079600       3.84877234       4.93095598      -0.04929200      -0.03066200       0.07542500
Mo       1.69122469       4.82141558       3.26618752      -0.33605000       0.37433200      -0.26745400
Se       3.33285179       3.88221465       1.54858837       0.52802500       0.17952000       0.12396500
Se       3.32623392       3.87193040       4.94303646       0.73920100       0.36697600       0.11305300
Mo       5.01937399       4.83799272       3.23364359      -0.59842500       0.19094700       0.30600200
Se       6.69563194       3.85591820       1.58592943      -0.10879100       0.81257700      -0.31766300
Se       6.69082183       3.85361035       4.94037095      -0.12325300       0.87375900      -0.04182700
Mo       8.32422096       4.85026411       3.24977050       0.96915800       0.11011600       0.24350300
Se      10.01057315       3.87741383       1.54177485      -0.43473400       0.27710000       0.29053700
Se      10.03828012       3.82282608       4.95755403      -0.55798200       0.78124900      -0.22584900
Mo      11.68637654       4.81762045       3.24476426      -0.09174700       0.17810000       0.03762800
Se      13.37837882       3.88991652       1.52175683      -0.19839500      -0.32811500       0.23196300
Se      13.37746860       3.88908188       4.93031260      -0.13281100      -0.25289000       0.14317900
Mo      15.02933513       4.81859275       3.23427504       0.32964600       0.19039100       0.20179300
Mo       0.02352327       7.74789490       3.25707920      -0.61497300      -0.95400100      -0.07366500
Se       1.70018085       6.74839590       1.57629589       0.28960800       0.18704600      -0.14830700
Se       1.67669521       6.77473190       4.95838358       0.58454000       0.00632400      -0.17361200
Mo       3.35243978       7.70897311       3.23923910       0.28262100      -0.52066100       0.13609700
Mo      10.02236488       7.72488513       3.24101355      -0.01323500      -0.59319600      -0.17961500
Se      11.70000429       6.72237859       1.54541810      -0.47077800       0.47813800       0.21127600
Se      11.68374452       6.76112514       4.94222114      -0.42188800       0.04718200      -0.15779100
Mo      13.37967258       7.71560372       3.25620384      -0.10354400      -0.06267900      -0.01837300
Se      15.03577064       6.74668330       1.56546335       0.20301600       0.21734600      -0.08913100
Se      15.04658109       6.75355536       4.95108564       0.07421200       0.01575600      -0.10335400
Se      -0.02906368       9.61769903       1.55749154       0.40288100       0.40734500      -0.17825700
Se      -0.01493545       9.62394844       4.94374920       0.31954900       0.48115800       0.10732000
Mo       1.68862899      10.61758184       3.23867329      -0.93469200      -0.16909300       0.26986500
Se       3.35842050       9.65511219       1.56510120       0.43847900      -0.47122300      -0.24081300
Se       3.36663918       9.59946336       4.93366621       0.46572900      -0.00041400      -0.02139500
Mo       4.99811128      10.58925218       3.23229685       0.88619700       0.51086200       0.36530200
Mo       8.34991649      10.60638572       3.24661481      -0.22190200       0.19725600       0.07853100
Se      10.02064655       9.64008767       1.52240779      -0.54811600      -0.23106900       0.47323000
Se      10.03107956       9.61847041       4.94647647      -0.69006300      -0.12661500      -0.23316900
Mo      11.69608139      10.61654514       3.25024034       0.31860400       0.24906900      -0.18136200
Se      13.37101323       9.64389062       1.56862270      -0.10621600      -0.00327200      -0.12929200
Se      13.35752239       9.65528068       4.94598416       0.06536800      -0.02020900      -0.02085500
Mo      15.04601915      10.60491215       3.24813976      -0.22308100       0.20292300       0.21324500
Mo      -0.00725974      13.50715740       3.23730615       0.06593900      -0.22306900       0.26237100
Se       1.65909848      12.52329563       1.55067387       0.15611500       0.12961200      -0.12912100
Se       1.67062625      12.53496117       4.92989539       0.06279500       0.00174000       0.03816600
Mo       3.34752748      13.50169537       3.23755419       0.04462100      -0.00159500       0.16460700
Se       5.06802702      12.55740596       1.58294752      -0.42054700      -0.75694400      -0.36785700
Se       5.05453853      12.56149357       4.94558061      -0.50707600      -0.96074000       0.13197700
Mo       6.66960229      13.48611799       3.28024121       0.80336500       0.49501300      -0.44825500
Se       8.32402275      12.53659893       1.55467166       0.06860100      -0.50711500       0.16326400
Se       8.38111169      12.55143543       4.96583131      -0.23101500      -0.67454100      -0.29792900
Mo      10.01638493      13.51833441       3.23416530       0.15276000       0.26454300       0.14975400
Se      11.73191511      12.57728204       1.55921432      -0.38919700      -0.34078700      -0.15683300
Se      11.66255275      12.53875994       4.94753402       0.41246600       0.14045000      -0.30275200
Mo      13.38818389      13.52634323       3.21706795      -0.38484100      -0.39106600       1.21636800
Se      15.02311034      12.53745882       1.55033154       0.25908600      -0.07335700      -0.17229700
Se      15.05052514      12.54454304       4.95238167      -0.13465500       0.01659600      -0.19804100
Se       0.00362760      15.40436852       1.55115816      -0.22968200       0.35469200      -0.09399600
Se       0.00055989      15.43982569       4.93870208      -0.05229800      -0.03730700       0.00560500
Mo       1.66808563      16.38023163       3.23062844       0.20223900       0.30750500       0.27535400
Se       3.35595779      15.43345884       1.56938854      -0.01601200       0.00656000      -0.32505000
Se       3.34421516      15.40051408       4.94285814       0.04370000       0.33632300      -0.15202000
Mo       5.02680872      16.41861788       3.23758627      -0.35557700       0.08230500       0.39263900
Se       6.67954595      15.45177040       1.53155737      -0.05236300      -0.28916900       0.24172300
Se       6.68737640      15.43753852       4.93422505      -0.12616400       0.09017200       0.17890600
Mo       8.33689683      16.39276830       3.24133947       0.46411100      -0.00127300      -0.02357600
Se      10.03320771      15.45102157       1.54439547      -0.24715900      -0.08146300      -0.06054300
Se      10.03848837      15.43887312       4.96724787      -0.39373600      -0.08217700      -0.17792100
Mo      11.65165759      16.41012602       3.26195535       0.61969200       0.10803200      -0.14393600
Se      13.34777866      15.44093203       1.58118534       0.06620800       0.34793400      -0.32401000
Se      13.34902136      15.44973488       4.93997691       0.06723800      -0.09111600       0.01016500
Mo      15.02958905      16.42804338       3.26076061       0.07901600      -0.54819900      -0.28252600
83
Lattice="16.71105 0.0 0.0 0.0 17.366633 0.0 0.0 0.0 30.0" Properties=species:S:1:pos:R:3:forces:R:3 energy=-382.1692310000017 stress="0.002001 -0.000122 0.000232 -0.000122 0.001896 -0.000217 0.000232 -0.000217 0.000423" pbc="T T T" 
Mo       0.03008027       1.87146351       3.25788327      -1.15170900       0.66598800      -0.62734700
Se       1.66302817       0.98297116       1.55173051       0.31621500      -0.35840800      -0.05497200
Se       1.69062658       0.94300826       4.91679923      -0.04753400      -0.37068300       0.42352300
Mo       3.33414392       1.95545304       3.28522723       0.18455700      -0.26242300      -0.79591200
Se       4.98737071       1.00655827       1.51124656       0.15864700       0.06029400       0.70909200
Se       4.98033340       1.00368122       5.03885554       0.39541100      -0.18856400      -0.99464800
Mo       6.69087316       1.95458777       3.25420754      -0.48653400      -1.32154600       0.11706800
Se       8.32485459       0.93585151       1.51211478       0.29375200       0.41098100       0.59102500
Se       8.38202728       0.94781882       4.90320462      -0.20920300       0.12113100       0.22027200
Mo      10.05457267       1.95070333       3.26186488      -0.33289400      -0.65710000      -0.72542000
Se      11.70983261       0.99576249       1.55954435      -0.25316200      -0.14525000      -0.00918900
Se      11.73360865       0.95073541       4.98014505      -0.28193300       0.36113100      -0.19045500
Mo      13.36624471       1.94446484       3.24625167       0.31645200       0.18125800      -0.15233400
Se      14.97886161       0.91946469       1.51028338       0.55369000       0.46390500       0.45027700
Se      15.02875762       0.95565908       4.95733654       0.08660800       0.35880300       0.07145400
Se      -0.01808429       3.85939174       1.54222830       0.38850900      -0.26821300       0.38044000
Se       0.00102506       3.83763218       4.91915629      -0.06348600      -0.02758600       0.10352000
Mo       1.70860885       4.82242024       3.28235748      -0.79555000       0.53458900      -0.49371900
Se       3.32969601       3.90803412       1.54450876       0.56764700      -0.01244000       0.18142000
Se       3.31888749       3.88944363       4.94414984       0.96434000       0.30589700       0.28589400
Mo       5.01957830       4.85431157       3.22211097      -0.66645600       0.14564500       0.54868600
Se       6.70579575       3.86245843       1.61483167      -0.21636500       0.79739100      -0.70100900
Se       6.69587200       3.85849978       4.93677771      -0.22607700       0.90721500       0.03726700
Mo       8.30184125       4.87836830       3.25416729       1.41969500       0.00996000       0.40468100
Se       9.98873094       3.89941368       1.53271995      -0.42070100       0.14076100       0.48330200
Se      10.04341552       3.79494005       4.96949464      -0.63294200       1.08750700      -0.29904800
Mo      11.67374977       4.81279431       3.24197105       0.00925200       0.21409600       0.05595000
Se      13.38574023       3.91746850       1.49131317      -0.36898700      -0.56302100       0.46089200
Se      13.38465761       3.91666252       4.91871629      -0.27860700      -0.45602400       0.23106200
Mo      15.02170164       4.81488504       3.22232956       0.58894000       0.32573500       0.33385300
Mo       0.04146333       7.76854982       3.26581657      -0.83776100      -1.61847000      -0.15491400
Se       1.73363060       6.74524216       1.59728323       0.00384400       0.18582900      -0.37168600
Se       1.68960350       6.79645372       4.97179622       0.56991700      -0.15223000      -0.25123200
Mo       3.36589896       7.69386347       3.23175165       0.54492600      -0.52251400       0.23456700
Mo      10.01777818       7.72539458       3.23218396      -0.07386100      -0.63726500      -0.33226400
Se      11.69657515       6.69601597       1.53903212      -0.37896700       0.72057200       0.28852800
Se      11.66413145       6.76935696       4.93918796      -0.29457400      -0.08019400      -0.20566900
Mo      13.38981316       7.71199018       3.26461960      -0.41081600      -0.05274500      -0.04375900
Se      15.03394218       6.74214919       1.57600508       0.36557800       0.34698400      -0.15430600
Se      15.05428534       6.75360697       4.95785671       0.12831200      -0.02539700      -0.19286900
Se      -0.05404932       9.59133578       1.55884458       0.70091700       0.70069100      -0.28887100
Se      -0.02642684       9.60494733       4.94553437       0.51085800       0.83565900       0.21480400
Mo       1.69737121      10.62068263       3.23191734      -1.11660400      -0.57693200       0.42225200
Se       3.38043422       9.65643497       1.57353409       0.19537800      -0.56583300      -0.53788100
Se       3.39750528       9.54948052       4.92359521       0.29505800       0.37926300       0.14495200
Mo       4.99146389      10.57001155       3.21996611       1.25519700       0.70378600       0.64562500
Mo       8.34180461      10.60161733       3.24614151      -0.04031300       0.12145200       0.13366900
Se      10.00770106       9.62893842       1.49569345      -0.44977000      -0.09650100       0.73842300
Se      10.02717715       9.58636805       4.94678903      -0.68072300       0.09292500      -0.30630400
Mo      11.69758043      10.62270431       3.25089732       0.05172500       0.13957300      -0.32581700
Se      13.37196085       9.63951487       1.58194542      -0.15642000      -0.02262000      -0.22629700
Se      13.34666569       9.66236266       4.94852795       0.14672900      -0.06453500      -0.01804300
Mo      15.05007160      10.59867952       3.25053591      -0.35803900       0.35357400       0.32157700
Mo      -0.01403826      13.50469979       3.22907234       0.11946500      -0.38624000       0.42253700
Se       1.64865589      12.50508177       1.54563770       0.27385700       0.28352400      -0.18199300
Se       1.67090691      12.52716443       4.91659549       0.10287600       0.04414100       0.09706800
Mo       3.35343274      13.49587285       3.22859648       0.16702700      -0.24981800       0.24225500
Se       5.11900391      12.56332262       1.60812831      -0.94138000      -0.91535400      -0.74682800
Se       5.09064611      12.56911937       4.94956917      -1.07351200      -1.28011700       0.37576800
Mo       6.66244403      13.46918879       3.30906677       1.47515000       1.06763800      -0.78694400
Se       8.29257018      12.52423727       1.55725662       0.31938100      -0.42023500       0.21296100
Se       8.40455070      12.55224072       4.98534475      -0.33478000      -0.73852800      -0.48092500
Mo      10.00742126      13.53221322       3.22159956       0.17278800       0.17442600       0.25731300
Se      11.76230368      12.60878433       1.56257670      -0.71743200      -0.59857600      -0.27144400
Se      11.63136509      12.53650327       4.94828233       0.69607000       0.26180200      -0.47182200
Mo      13.40425904      13.54200052       3.19749965      -0.58971200      -0.63082900       2.03214500
Se      15.00895794      12.53132772       1.54441775       0.46941900      -0.12079200      -0.23439600
Se      15.05977112      12.54674237       4.95934632      -0.22389900       0.01873600      -0.32694400
Se       0.00458224      15.37517482       1.54697861      -0.38320100       0.67260300      -0.12828600
Se       0.00048307      15.44225759       4.93403125      -0.09173300      -0.08720800      -0.02172800
Mo       1.66702258      16.36107581       3.21567803       0.31971900       0.52055300       0.45922200
Se       3.36987567      15.42989934       1.58111411      -0.02391600       0.02014900      -0.53592600
Se       3.34678113      15.36711152       4.94066423       0.06579700       0.62790300      -0.23629300
Mo       5.03714648      16.43663326       3.23091877      -0.57455300       0.06672700       0.62217400
Se       6.67391329      15.46349947       1.51135597      -0.07636700      -0.46558200       0.47826500
Se       6.68888717      15.43918918       4.92707141      -0.20906000       0.14709800       0.29498400
Mo       8.32240307      16.38343287       3.23440092       0.83715500      -0.00059600      -0.06696700
Se      10.03696486      15.46442136       1.53371431      -0.45598400      -0.14994000      -0.06204300
Se      10.04591380      15.43981170       4.98970270      -0.71941800      -0.14305200      -0.34453000
Mo      11.61053377      16.41973090       3.27499601       1.15518700       0.16129100      -0.29282500
Se      13.32692709      15.44917191       1.60506299       0.11755200       0.60475300      -0.54285900
Se      13.32948881      15.46171072       4.93672152       0.14230600      -0.15792200       0.01345600
Mo      15.01973385      16.44947320       3.27122269       0.17032600      -0.97763700      -0.50535300
83
Lattice="16.71105 0.0 0.0 0.0 17.366633 0.0 0.0 0.0 30.0" Properties=species:S:1:pos:R:3:forces:R:3 energy=-381.4628309999989 stress="0.002158 -0.000201 0.000313 -0.000201 0.002056 -0.000311 0.000313 -0.000311 0.000604" pbc="T T T" 
Mo       0.03145078       1.84720095       3.25486448      -1.31319100       0.85764600      -0.67003300
Se       1.66377195       0.98739172       1.54929507       0.37642200      -0.46467500      -0.05050500
Se       1.70116376       0.92425633       4.90882375      -0.14403200      -0.37626600       0.45974800
Mo       3.33153557       1.96597301       3.29571579       0.30117700      -0.18153800      -0.92281700
Se       4.97522611       1.03166344       1.49851295       0.20347700      -0.01058000       0.89532900
Se       4.96817193       1.02287204       5.07681671       0.45794800      -0.26381800      -1.29581600
Mo       6.68769585       1.94873924       3.25954343      -0.53957200      -1.11002200       0.10453700
Se       8.31211240       0.92620693       1.49798465       0.37903300       0.49011600       0.74206800
Se       8.39364941       0.94017212       4.88389212      -0.27309500       0.12300900       0.31933900
Mo      10.06661933       1.95298352       3.25986788      -0.58600200      -0.59878600      -0.79453700
Se      11.71248575       1.01106827       1.56245032      -0.28464300      -0.20129200      -0.05668900
Se      11.74938959       0.94861832       4.99826054      -0.36065900       0.51737700      -0.32953600
Mo      13.36909103       1.95553689       3.24325072       0.33181300       0.16621600      -0.13404700
Se      14.95312304       0.90125976       1.49261036       0.70111600       0.60815600       0.57502100
Se      15.02375612       0.95638369       4.96670441       0.11241200       0.42066100       0.01257800
Se      -0.02201188       3.85487416       1.54165973       0.50953100      -0.30732700       0.44847900
Se       0.00049676       3.82459637       4.90710903      -0.05253900      -0.02673700       0.12702700
Mo       1.71988360       4.82918079       3.29542571      -1.02917300       0.52784300      -0.60525000
Se       3.33350898       3.93714550       1.54226300       0.51557700      -0.19423000       0.21844500
Se       3.32312168       3.91323109       4.94902036       1.03479500       0.17416300       0.33707400
Mo       5.01267366       4.87443027       3.21493288      -0.63213400       0.17613400       0.72341400
Se       6.71453333       3.88027458       1.63866411      -0.30178900       0.65875400      -0.84413300
Se       6.69866247       3.87586499       4.93309646      -0.30150200       0.80425100       0.03542500
Mo       8.29168439       4.91029366       3.26344827       1.66574000      -0.05195600       0.47239800
Se       9.95859617       3.92617122       1.52875203      -0.29997100      -0.02515300       0.59799000
Se      10.04092965       3.77753409       4.97905502      -0.64538300       1.23769000      -0.37747100
Mo      11.65953569       4.80960740       3.23940868       0.10555500       0.22411100       0.07255100