288
Lattice="23.38722852 0.0 0.0 0.0 40.52994239 0.0 0.0 0.0 30.0" Properties=species:S:1:pos:R:3:forces:R:3 energy=-1372.6293279999882 stress="0.002323 0.0 -0.0 0.0 0.00193 -0.0 -0.0 -0.0 -0.000534" pbc="T T T" 
Mo      -8.60773528      -7.59936401      -0.00000815       0.00008700      -0.00000100       0.00031800
Se      -6.65880974      -7.59936394       1.68234772       0.00389700      -0.00000100       0.05391400
Se      -6.65880993      -7.59936394      -1.68234041       0.00389700      -0.00000100      -0.05418100
Mo      -5.68430746      -5.91061649      -0.00000830       0.00309000       0.00000200      -0.00005400
Se      -3.73559140      -5.91061642       1.68243619      -0.00388200      -0.00000000       0.05655200
Se      -3.73559189      -5.91061642      -1.68242922      -0.00387700       0.00000000      -0.05681600
Mo      -8.60773528      -4.22186881      -0.00000815       0.00008700      -0.00000100       0.00031700
Se      -6.65880974      -4.22186874       1.68234772       0.00389700      -0.00000100       0.05391400
Se      -6.65880993      -4.22186874      -1.68234041       0.00389700      -0.00000100      -0.05418000
Mo      -5.68430746      -2.53312129      -0.00000830       0.00309000       0.00000100      -0.00005500
Se      -3.73559140      -2.53312122       1.68243619      -0.00388200      -0.00000000       0.05655200
Se      -3.73559189      -2.53312122      -1.68242922      -0.00387700      -0.00000000      -0.05681600
Mo      -8.60773528      -0.84437361      -0.00000815       0.00008700      -0.00000100       0.00031600
Se      -6.65880974      -0.84437354       1.68234772       0.00389700      -0.00000100       0.05391500
Se      -6.65880993      -0.84437354      -1.68234041       0.00389700      -0.00000100      -0.05418000
Mo      -5.68430746       0.84437391      -0.00000830       0.00309000       0.00000200      -0.00005500
Se      -3.73559140       0.84437398       1.68243619      -0.00388100       0.00000000       0.05655200
Se      -3.73559189       0.84437398      -1.68242922      -0.00387700      -0.00000000      -0.05681600
Mo      -8.60773528       2.53312158      -0.00000815       0.00008700      -0.00000100       0.00031700
Se      -6.65880974       2.53312165       1.68234772       0.00389700      -0.00000100       0.05391500
Se      -6.65880993       2.53312165      -1.68234041       0.00389700      -0.00000100      -0.05418100
Mo      -5.68430746       4.22186911      -0.00000830       0.00309000       0.00000200      -0.00005400
Se      -3.73559140       4.22186918       1.68243619      -0.00388100       0.00000000       0.05655100
Se      -3.73559189       4.22186918      -1.68242922      -0.00387700      -0.00000000      -0.05681700
Mo      -8.60773528       5.91061678      -0.00000815       0.00008700      -0.00000100       0.00031800
Se      -6.65880974       5.91061685       1.68234772       0.00389800      -0.00000100       0.05391500
Se      -6.65880993       5.91061685      -1.68234041       0.00389700      -0.00000100      -0.05418100
Mo      -5.68430746       7.59936430      -0.00000830       0.00309000       0.00000200      -0.00005400
Se      -3.73559140       7.59936437       1.68243619      -0.00388100      -0.00000000       0.05655200
Se      -3.73559189       7.59936437      -1.68242922      -0.00387700       0.00000000      -0.05681700
Mo      -8.60773528       9.28811198      -0.00000815       0.00008700      -0.00000100       0.00031700
Se      -6.65880974       9.28811205       1.68234772       0.00389700      -0.00000100       0.05391500
Se      -6.65880993       9.28811205      -1.68234041       0.00389700      -0.00000100      -0.05418100
Mo      -5.68430746      10.97685950      -0.00000830       0.00309000       0.00000200      -0.00005400
Se      -3.73559140      10.97685957       1.68243619      -0.00388200      -0.00000000       0.05655200
Se      -3.73559189      10.97685957      -1.68242922      -0.00387700       0.00000000      -0.05681700
Mo      -2.76092815      -7.59936401      -0.00000815       0.00934500      -0.00000100       0.00016100
Se      -0.81200261      -7.59936394       1.68234772      -0.00252500      -0.00000100       0.03381400
Se      -0.81200280      -7.59936394      -1.68234041      -0.00252600      -0.00000100      -0.03408300
Mo       0.16249966      -5.91061649      -0.00000830      -0.02233000       0.00000100       0.00033500
Se       2.11121573      -5.91061642       1.68243619       0.00568600      -0.00000000       0.03333100
Se       2.11121524      -5.91061642      -1.68242922       0.00569100      -0.00000000      -0.03359700
Mo      -2.76092815      -4.22186881      -0.00000815       0.00934500      -0.00000100       0.00016000
Se      -0.81200261      -4.22186874       1.68234772      -0.00252500      -0.00000100       0.03381400
Se      -0.81200280      -4.22186874      -1.68234041      -0.00252600      -0.00000100      -0.03408300
Mo       0.16249966      -2.53312129      -0.00000830      -0.02233000       0.00000200       0.00033600
Se       2.11121573      -2.53312122       1.68243619       0.00568600       0.00000000       0.03333000
Se       2.11121524      -2.53312122      -1.68242922       0.00569100      -0.00000000      -0.03359800
Mo      -2.76092815      -0.84437361      -0.00000815       0.00934500      -0.00000100       0.00016000
Se      -0.81200261      -0.84437354       1.68234772      -0.00252500      -0.00000100       0.03381300
Se      -0.81200280      -0.84437354      -1.68234041      -0.00252600      -0.00000100      -0.03408400
Mo       0.16249966       0.84437391      -0.00000830      -0.02233000       0.00000100       0.00033900
Se       2.11121573       0.84437398       1.68243619       0.00568600       0.00000100       0.03332800
Se       2.11121524       0.84437398      -1.68242922       0.00569100      -0.00000100      -0.03360100
Mo      -2.76092815       2.53312158      -0.00000815       0.00934500      -0.00000100       0.00016200
Se      -0.81200261       2.53312165       1.68234772      -0.00252500      -0.00000200       0.03380900
Se      -0.81200280       2.53312165      -1.68234041      -0.00252600      -0.00000200      -0.03408500
Mo       0.16249966       4.22186911      -0.00000830      -0.02233200       0.00000100       0.00034900
Se       2.11121573       4.22186918       1.68243619       0.00568100      -0.00000200       0.03330100
Se       2.11121524       4.22186918      -1.68242922       0.00569700       0.00001400      -0.03359600
Mo      -2.76092815       5.91061678      -0.00000815       0.00934600      -0.00000100       0.00016300
Se      -0.81200261       5.91061685       1.68234772      -0.00252400      -0.00000100       0.03381100
Se      -0.81200280       5.91061685      -1.68234041      -0.00252600      -0.00000100      -0.03408700
Mo       0.16249966       7.59936430      -0.00000830      -0.02233100       0.00000300       0.00034800
Se       2.11121573       7.59936437       1.68243619       0.00568200       0.00000200       0.03330400
Se       2.11121524       7.59936437      -1.68242922       0.00569700      -0.00001500      -0.03359600
Mo      -2.76092815       9.28811198      -0.00000815       0.00934500      -0.00000200       0.00016200
Se      -0.81200261       9.28811205       1.68234772      -0.00252500      -0.00000100       0.03381000
Se      -0.81200280       9.28811205      -1.68234041      -0.00252600      -0.00000100      -0.03408500
Mo       0.16249966      10.97685950      -0.00000830      -0.02233000       0.00000300       0.00033600
Se       2.11121573      10.97685957       1.68243619       0.00568700      -0.00000100       0.03333300
Se       2.11121524      10.97685957      -1.68242922       0.00569000       0.00000100      -0.03360100
Mo       3.08587898      -7.59936401      -0.00000815       0.00008700      -0.00000100       0.00031800
Se       5.03480452      -7.59936394       1.68234772       0.00389700      -0.00000100       0.05391400
Se       5.03480433      -7.59936394      -1.68234041       0.00389700      -0.00000100      -0.05418100
Mo       6.00930679      -5.91061649      -0.00000830       0.00309000       0.00000100      -0.00005300
Se       7.95802286      -5.91061642       1.68243619      -0.00388200      -0.00000000       0.05655200
Se       7.95802237      -5.91061642      -1.68242922      -0.00387600      -0.00000000      -0.05681700
Mo       3.08587898      -4.22186881      -0.00000815       0.00008700      -0.00000100       0.00031900
Se       5.03480452      -4.22186874       1.68234772       0.00389700      -0.00000100       0.05391400
Se       5.03480433      -4.22186874      -1.68234041       0.00389700      -0.00000200      -0.05418300
Mo       6.00930679      -2.53312129      -0.00000830       0.00309000       0.00000200      -0.00005000
Se       7.95802286      -2.53312122       1.68243619      -0.00388200       0.00000000       0.05655200
Se       7.95802237      -2.53312122      -1.68242922      -0.00387600      -0.00000000      -0.05681900
Mo       3.08587898      -0.84437361      -0.00000815       0.00008600      -0.00000100       0.00032200
Se       5.03480452      -0.84437354       1.68234772       0.00389700      -0.00000100       0.05391000
Se       5.03480433      -0.84437354      -1.68234041       0.00389700      -0.00000200      -0.05418500
Mo       6.00930679       0.84437391      -0.00000830       0.00309000       0.00000000      -0.00003900
Se       7.95802286       0.84437398       1.68243619      -0.00388300       0.00000100       0.05655000
Se       7.95802237       0.84437398      -1.68242922      -0.00387600      -0.00000000      -0.05682200
Mo       3.08587898       2.53312158      -0.00000815       0.00008600      -0.00000300       0.00033800
Se       5.03480452       2.53312165       1.68234772       0.00389800      -0.00000600       0.05388500
Se       5.03480433       2.53312165      -1.68234041       0.00390600       0.00001100      -0.05418200
Mo       6.00930679       4.22186911      -0.00000830       0.00295700       0.00023200       0.00029500
Se       7.95802286       4.22186918       1.68243619      -0.00387800      -0.00000300       0.05652300
Se       7.95802237       4.22186918      -1.68242922      -0.00389100      -0.00000100      -0.05681700
Mo       3.08587898       5.91061678      -0.00000815       0.00035500      -0.00000100       0.00066400
Se       5.03480433       5.91061685       1.68243619       0.00405400      -0.00000100       0.05215200
Se       5.03480433       5.91061685      -1.68234041       0.00389700      -0.00000200      -0.05405000
Mo       6.00930679       7.59936430      -0.00000830       0.00296700      -0.00024700       0.00026700
Se       7.95802286       7.59936437       1.68243619      -0.00387900       0.00000300       0.05652500
Se       7.95802237       7.59936437      -1.68242922      -0.00389000       0.00000200      -0.05681700
Mo       3.08587898       9.28811198      -0.00000815       0.00006300       0.00000100       0.00030700
Se       5.03480433       9.28811205       1.68234041       0.00390000       0.00000400       0.05395000
Se       5.03480433       9.28811205      -1.68234041       0.00390600      -0.00001400      -0.05419300
Mo       6.00930679      10.97685950      -0.00000830       0.00311100       0.00000400      -0.00009700
Se       7.95802286      10.97685957       1.68243619      -0.00388300      -0.00000200       0.05655500
Se       7.95802237      10.97685957      -1.68242922      -0.00387400       0.00000000      -0.05682100
Mo       8.93268611      -7.59936401      -0.00000815       0.00934600      -0.00000100       0.00016100
Se      10.88161165      -7.59936394       1.68234772      -0.00252500      -0.00000100       0.03381400
Se      10.88161146      -7.59936394      -1.68234041      -0.00252600      -0.00000100      -0.03408300
Mo      11.85611392      -5.91061649      -0.00000830      -0.02233000       0.00000200       0.00033500
Se      13.80482999      -5.91061642       1.68243619       0.00568600       0.00000000       0.03333000
Se      13.80482950      -5.91061642      -1.68242922       0.00569200       0.00000000      -0.03359500
Mo       8.93268611      -4.22186881      -0.00000815       0.00934600      -0.00000100       0.00016100
Se      10.88161165      -4.22186874       1.68234772      -0.00252500      -0.00000100       0.03381400
Se      10.88161146      -4.22186874      -1.68234041      -0.00252500      -0.00000100      -0.03408300
Mo      11.85611392      -2.53312129      -0.00000830      -0.02232900       0.00000200       0.00033500
Se      13.80482999      -2.53312122       1.68243619       0.00568600      -0.00000000       0.03333100
Se      13.80482950      -2.53312122      -1.68242922       0.00569200      -0.00000000      -0.03359500
Mo       8.93268611      -0.84437361      -0.00000815       0.00934500      -0.00000100       0.00016400
Se      10.88161165      -0.84437354       1.68234772      -0.00252600      -0.00000100       0.03381300
Se      10.88161146      -0.84437354      -1.68234041      -0.00252500      -0.00000100      -0.03408400
Mo      11.85611392       0.84437391      -0.00000830      -0.02233000       0.00000200       0.00033700
Se      13.80482999       0.84437398       1.68243619       0.00568600       0.00000000       0.03333100
Se      13.80482950       0.84437398      -1.68242922       0.00569200      -0.00000000      -0.03359600
Mo       8.93268611       2.53312158      -0.00000815       0.00934700      -0.00000200       0.00017500
Se      10.88161165       2.53312165       1.68234772      -0.00252500      -0.00000000       0.03381000
Se      10.88161146       2.53312165      -1.68234041      -0.00252500      -0.00000100      -0.03408500
Mo      11.85611392       4.22186911      -0.00000830      -0.02232900       0.00000300       0.00033800
Se      13.80482999       4.22186918       1.68243619       0.00568500       0.00000000       0.03333000
Se      13.80482950       4.22186918      -1.68242922       0.00569200      -0.00000000      -0.03359600
Mo       8.93268611       5.91061678      -0.00000815       0.00934800      -0.00000100       0.00018000
Se      10.88161165       5.91061685       1.68234772      -0.00252600      -0.00000100       0.03381100
Se      10.88161146       5.91061685      -1.68234041      -0.00252500      -0.00000100      -0.03408700
Mo      11.85611392       7.59936430      -0.00000830      -0.02232900       0.00000100       0.00033800
Se      13.80482999       7.59936437       1.68243619       0.00568500      -0.00000000       0.03333000
Se      13.80482950       7.59936437      -1.68242922       0.00569200       0.00000000      -0.03359700
Mo       8.93268611       9.28811198      -0.00000815       0.00934700      -0.00000100       0.00017200
Se      10.88161165       9.28811205       1.68234772      -0.00252500      -0.00000200       0.03381000
Se      10.88161146       9.28811205      -1.68234041      -0.00252500      -0.00000200      -0.03408500
Mo      11.85611392      10.97685950      -0.00000830      -0.02233000       0.00000200       0.00033600
Se      13.80482999      10.97685957       1.68243619       0.00568600      -0.00000000       0.03333100
Se      13.80482950      10.97685957      -1.68242922       0.00569200       0.00000000      -0.03359600
Mo      -8.60773528      12.66560718      -0.00000815       0.00008700      -0.00000100       0.00031700
Se      -6.65880974      12.66560725       1.68234772       0.00389700      -0.00000100       0.05391400
Se      -6.65880993      12.66560725      -1.68234041       0.00389700      -0.00000100      -0.05418000
Mo      -5.68430746      14.35435470      -0.00000830       0.00309000       0.00000200      -0.00005400
Se      -3.73559140      14.35435477       1.68243619      -0.00388200       0.00000000       0.05655200
Se      -3.73559189      14.35435477      -1.68242922      -0.00387700       0.00000000      -0.05681600
Mo      -8.60773528      16.04310238      -0.00000815       0.00008700      -0.00000100       0.00031700
Se      -6.65880974      16.04310245       1.68234772       0.00389700      -0.00000100       0.05391400
Se      -6.65880993      16.04310245      -1.68234041       0.00389700      -0.00000100      -0.05418100
Mo      -5.68430746      17.73184990      -0.00000830       0.00309000       0.00000100      -0.00005300
Se      -3.73559140      17.73184997       1.68243619      -0.00388200       0.00000000       0.05655200
Se      -3.73559189      17.73184997      -1.68242922      -0.00387600      -0.00000000      -0.05681700
Mo      -8.60773528      19.42059758      -0.00000815       0.00008700      -0.00000200       0.00031900
Se      -6.65880974      19.42059765       1.68234772       0.00389700      -0.00000100       0.05391400
Se      -6.65880993      19.42059765      -1.68234041       0.00389700      -0.00000200      -0.05418200
Mo      -5.68430746      21.10934510      -0.00000830       0.00309000       0.00000100      -0.00005200
Se      -3.73559140      21.10934517       1.68243619      -0.00388200      -0.00000000       0.05655200
Se      -3.73559189      21.10934517      -1.68242922      -0.00387600      -0.00000000      -0.05681800
Mo      -8.60773528      22.79809278      -0.00000815       0.00008700      -0.00000200       0.00032000
Se      -6.65880974      22.79809285       1.68234772       0.00389700      -0.00000100       0.05391500
Se      -6.65880993      22.79809285      -1.68234041       0.00389700      -0.00000200      -0.05418400
Mo      -5.68430746      24.48684030      -0.00000830       0.00309000       0.00000200      -0.00005100
Se      -3.73559140      24.48684037       1.68243619      -0.00388200      -0.00000000       0.05655300
Se      -3.73559189      24.48684037      -1.68242922      -0.00387600      -0.00000000      -0.05681900
Mo      -8.60773528      26.17558798      -0.00000815       0.00008700      -0.00000100       0.00032000
Se      -6.65880974      26.17558805       1.68234772       0.00389700      -0.00000100       0.05391500
Se      -6.65880993      26.17558805      -1.68234041       0.00389700      -0.00000100      -0.05418400
Mo      -5.68430746      27.86433550      -0.00000830       0.00309000       0.00000200      -0.00005100
Se      -3.73559140      27.86433557       1.68243619      -0.00388200       0.00000000       0.05655300
Se      -3.73559189      27.86433557      -1.68242922      -0.00387600       0.00000000      -0.05681900
Mo      -8.60773528      29.55308318      -0.00000815       0.00008700      -0.00000100       0.00031900
Se      -6.65880974      29.55308325       1.68234772       0.00389700      -0.00000100       0.05391500
Se      -6.65880993      29.55308325      -1.68234041       0.00389700      -0.00000100      -0.05418300
Mo      -5.68430746      31.24183070      -0.00000830       0.00309000       0.00000300      -0.00005200
Se      -3.73559140      31.24183077       1.68243619      -0.00388200       0.00000000       0.05655200
Se      -3.73559189      31.24183077      -1.68242922      -0.00387600       0.00000000      -0.05681700
Mo      -2.76092815      12.66560718      -0.00000815       0.00934500      -0.00000100       0.00016000
Se      -0.81200261      12.66560725       1.68234772      -0.00252500      -0.00000200       0.03381400
Se      -0.81200280      12.66560725      -1.68234041      -0.00252600      -0.00000100      -0.03408400
Mo       0.16249966      14.35435470      -0.00000830      -0.02233000       0.00000200       0.00033300
Se       2.11121573      14.35435477       1.68243619       0.00568700      -0.00000000       0.03333500
Se       2.11121524      14.35435477      -1.68242922       0.00569000       0.00000000      -0.03359700
Mo      -2.76092815      16.04310238      -0.00000815       0.00934500      -0.00000100       0.00016000
Se      -0.81200261      16.04310245       1.68234772      -0.00252600      -0.00000100       0.03381500
Se      -0.81200280      16.04310245      -1.68234041      -0.00252600      -0.00000100      -0.03408300
Mo       0.16249966      17.73184990      -0.00000830      -0.02233000       0.00000200       0.00033200
Se       2.11121573      17.73184997       1.68243619       0.00568600       0.00000000       0.03333600
Se       2.11121524      17.73184997      -1.68242922       0.00569100       0.00000000      -0.03359600
Mo      -2.76092815      19.42059758      -0.00000815       0.00934500      -0.00000100       0.00016100
Se      -0.81200261      19.42059765       1.68234772      -0.00252600      -0.00000100       0.03381400
Se      -0.81200280      19.42059765      -1.68234041      -0.00252600      -0.00000100      -0.03408300
Mo       0.16249966      21.10934510      -0.00000830      -0.02233000       0.00000100       0.00033400
Se       2.11121573      21.10934517       1.68243619       0.00568600       0.00000000       0.03333300
Se       2.11121524      21.10934517      -1.68242922       0.00569100       0.00000100      -0.03359600
Mo      -2.76092815      22.79809278      -0.00000815       0.00934600      -0.00000200       0.00016200
Se      -0.81200261      22.79809285       1.68234772      -0.00252500      -0.00000100       0.03381400
Se      -0.81200280      22.79809285      -1.68234041      -0.00252500      -0.00000200      -0.03408400
Mo       0.16249966      24.48684030      -0.00000830      -0.02233000       0.00000100       0.00033600
Se       2.11121573      24.48684037       1.68243619       0.00568600       0.00000000       0.03333100
Se       2.11121524      24.48684037      -1.68242922       0.00569200      -0.00000000      -0.03359700
Mo      -2.76092815      26.17558798      -0.00000815       0.00934600      -0.00000100       0.00016200
Se      -0.81200261      26.17558805       1.68234772      -0.00252500      -0.00000100       0.03381400
Se      -0.81200280      26.17558805      -1.68234041      -0.00252500      -0.00000100      -0.03408500
Mo       0.16249966      27.86433550      -0.00000830      -0.02233000       0.00000200       0.00033600
Se       2.11121573      27.86433557       1.68243619       0.00568600       0.00000000       0.03333000
Se       2.11121524      27.86433557      -1.68242922       0.00569200       0.00000000      -0.03359700
Mo      -2.76092815      29.55308318      -0.00000815       0.00934600      -0.00000100       0.00016200
Se      -0.81200261      29.55308325       1.68234772      -0.00252500      -0.00000100       0.03381400
Se      -0.81200280      29.55308325      -1.68234041      -0.00252500      -0.00000100      -0.03408400
Mo       0.16249966      31.24183070      -0.00000830      -0.02233000       0.00000200       0.00033600
Se       2.11121573      31.24183077       1.68243619       0.00568600      -0.00000000       0.03333000
Se       2.11121524      31.24183077      -1.68242922       0.00569200       0.00000000      -0.03359600
Mo       3.08587898      12.66560718      -0.00000815       0.00006300      -0.00000100       0.00028900
Se       5.03480433      12.66560725       1.68234041       0.00389900      -0.00000200       0.05397700
Se       5.03480433      12.66560725      -1.68234041       0.00389600      -0.00000100      -0.05419500
Mo       6.00930679      14.35435470      -0.00000830       0.00311200       0.00000200      -0.00011000
Se       7.95802286      14.35435477       1.68243619      -0.00388300      -0.00000000       0.05655700
Se       7.95802237      14.35435477      -1.68242922      -0.00387400       0.00000000      -0.05681800
Mo       3.08587898      16.04310238      -0.00000815       0.00006400      -0.00000100       0.00028600
Se       5.03480433      16.04310245       1.68234041       0.00389900      -0.00000100       0.05398100
Se       5.03480433      16.04310245      -1.68234041       0.00389600      -0.00000100      -0.05419300
Mo       6.00930679      17.73184990      -0.00000830       0.00311100       0.00000200      -0.00011100
Se       7.95802286      17.73184997       1.68243619      -0.00388200       0.00000000       0.05655700
Se       7.95802237      17.73184997      -1.68242922      -0.00387400       0.00000000      -0.05681700
Mo       3.08587898      19.42059758      -0.00000815       0.00006400      -0.00000100       0.00028700
Se       5.03480433      19.42059765       1.68234041       0.00390000      -0.00000100       0.05397900
Se       5.03480433      19.42059765      -1.68234041       0.00389700      -0.00000000      -0.05419200
Mo       6.00930679      21.10934510      -0.00000830       0.00310000       0.00002000      -0.00008200
Se       7.95802286      21.10934517       1.68243619      -0.00388200      -0.00000000       0.05655400
Se       7.95802237      21.10934517      -1.68242922      -0.00387500      -0.00000000      -0.05681700
Mo       3.08587898      22.79809278      -0.00000815       0.00008700      -0.00000200       0.00031700
Se       5.03480452      22.79809285       1.68234772       0.00389700      -0.00000200       0.05391600
Se       5.03480433      22.79809285      -1.68234041       0.00389700      -0.00000100      -0.05418200
Mo       6.00930679      24.48684030      -0.00000830       0.00309000       0.00000100      -0.00005300
Se       7.95802286      24.48684037       1.68243619      -0.00388200       0.00000000       0.05655200
Se       7.95802237      24.48684037      -1.68242922      -0.00387700      -0.00000000      -0.05681800
Mo       3.08587898      26.17558798      -0.00000815       0.00008700      -0.00000100       0.00031900
Se       5.03480452      26.17558805       1.68234772       0.00389800      -0.00000100       0.05391400
Se       5.03480433      26.17558805      -1.68234041       0.00389700      -0.00000100      -0.05418200
Mo       6.00930679      27.86433550      -0.00000830       0.00309000       0.00000200      -0.00005200
Se       7.95802286      27.86433557       1.68243619      -0.00388200       0.00000000       0.05655200
Se       7.95802237      27.86433557      -1.68242922      -0.00387600       0.00000000      -0.05681800
Mo       3.08587898      29.55308318      -0.00000815       0.00008700      -0.00000100       0.00031900
Se       5.03480452      29.55308325       1.68234772       0.00389700      -0.00000100       0.05391400
Se       5.03480433      29.55308325      -1.68234041       0.00389700      -0.00000100      -0.05418200
Mo       6.00930679      31.24183070      -0.00000830       0.00309000       0.00000200      -0.00005300
Se       7.95802286      31.24183077       1.68243619      -0.00388200      -0.00000000       0.05655200
Se       7.95802237      31.24183077      -1.68242922      -0.00387600       0.00000000      -0.05681700
Mo       8.93268611      12.66560718      -0.00000815       0.00934500      -0.00000200       0.00016000
Se      10.88161165      12.66560725       1.68234772      -0.00252600      -0.00000200       0.03381400
Se      10.88161146      12.66560725      -1.68234041      -0.00252500      -0.00000100      -0.03408400
Mo      11.85611392      14.35435470      -0.00000830      -0.02233000       0.00000200       0.00033400
Se      13.80482999      14.35435477       1.68243619       0.00568600       0.00000000       0.03333100
Se      13.80482950      14.35435477      -1.68242922       0.00569200       0.00000000      -0.03359500
Mo       8.93268611      16.04310238      -0.00000815       0.00934500      -0.00000100       0.00015700
Se      10.88161165      16.04310245       1.68234772      -0.00252500      -0.00000100       0.03381500
Se      10.88161146      16.04310245      -1.68234041      -0.00252600      -0.00000100      -0.03408300
Mo      11.85611392      17.73184990      -0.00000830      -0.02233000       0.00000200       0.00033400
Se      13.80482999      17.73184997       1.68243619       0.00568600       0.00000000       0.03333000
Se      13.80482950      17.73184997      -1.68242922       0.00569100      -0.00000000      -0.03359600
Mo       8.93268611      19.42059758      -0.00000815       0.00934500      -0.00000100       0.00015800
Se      10.88161165      19.42059765       1.68234772      -0.00252500      -0.00000100       0.03381400
Se      10.88161146      19.42059765      -1.68234041      -0.00252600      -0.00000100      -0.03408300
Mo      11.85611392      21.10934510      -0.00000830      -0.02233000       0.00000100       0.00033600
Se      13.80482999      21.10934517       1.68243619       0.00568600      -0.00000000       0.03333100
Se      13.80482950      21.10934517      -1.68242922       0.00569100      -0.00000000      -0.03359700
Mo       8.93268611      22.79809278      -0.00000815       0.00934500      -0.00000200       0.00016000
Se      10.88161165      22.79809285       1.68234772      -0.00252500      -0.00000100       0.03381400
Se      10.88161146      22.79809285      -1.68234041      -0.00252600      -0.00000200      -0.03408400
Mo      11.85611392      24.48684030      -0.00000830      -0.02233000       0.00000200       0.00033700
Se      13.80482999      24.48684037       1.68243619       0.00568600      -0.00000000       0.03333100
Se      13.80482950      24.48684037      -1.68242922       0.00569100      -0.00000000      -0.03359900
Mo       8.93268611      26.17558798      -0.00000815       0.00934500      -0.00000100       0.00016200
Se      10.88161165      26.17558805       1.68234772      -0.00252500      -0.00000100       0.03381400
Se      10.88161146      26.17558805      -1.68234041      -0.00252600      -0.00000100      -0.03408500
Mo      11.85611392      27.86433550      -0.00000830      -0.02233000       0.00000200       0.00033700
Se      13.80482999      27.86433557       1.68243619       0.00568600       0.00000000       0.03333100
Se      13.80482950      27.86433557      -1.68242922       0.00569100       0.00000000      -0.03359900
Mo       8.93268611      29.55308318      -0.00000815       0.00934500      -0.00000100       0.00016200