48
Lattice="13.3688398 0.0 0.0 0.0 31.577755 0.0 0.0 0.0 13.9842998" Properties=species:S:1:pos:R:3:forces:R:3 energy=-209.04568800000015 stress="0.00382 1.3e-05 8.5e-05 1.3e-05 0.000607 1.1e-05 8.5e-05 1.1e-05 0.00148" pbc="T T T" 
Mo       8.36883830      27.50738150       3.24785400      -0.01084800      -0.05849700       0.01869300
Se      10.03994750      26.54256630       1.55407500       0.00236900       0.07040200       0.53823200
Se      10.03994750      26.54256630       4.94330980      -0.01297600       0.08051900      -0.55244600
Mo      11.71104820      27.50738150       3.24785400      -0.01081600      -0.05850000       0.01869300
Se       0.01331710      26.54256630       1.55407500       0.00237300       0.07042300       0.53826700
Se       0.01331710      26.54256630       4.94330980      -0.01297200       0.08054000      -0.55248200
Mo       1.68441820      27.50738150       3.24785400      -0.01084700      -0.05850900       0.01869300
Se       3.35552690      26.54256630       1.55407500       0.00236200       0.07041800       0.53825800
Se       3.35552690      26.54256630       4.94330980      -0.01298200       0.08053600      -0.55247200
Mo       5.02662750      27.50738150       3.24785400      -0.01083900      -0.05850000       0.01869300
Se       6.69773680      26.54256630       1.55407500       0.00236500       0.07040800       0.53824200
Se       6.69773680      26.54256630       4.94330980      -0.01298000       0.08052500      -0.55245600
Se       8.36884210      29.43700600       1.55407500       0.00404700      -0.14141600      -0.13933400
Se       8.36884210      29.43700600       4.94330980      -0.01103300      -0.14693600       0.11512000
Mo      10.03994370      30.40182110       3.24785400      -0.01272400       0.24786400       0.02231600
Se      11.71105200      29.43700600       1.55407500       0.00405300      -0.14142300      -0.13933400
Se      11.71105200      29.43700600       4.94330980      -0.01102800      -0.14694300       0.11512000
Mo       0.01331280      30.40182110       3.24785400      -0.01269400       0.24785600       0.02231600
Se       1.68442200      29.43700600       1.55407500       0.00404800      -0.14142300      -0.13931800
Se       1.68442200      29.43700600       4.94330980      -0.01103300      -0.14694300       0.11510500
Mo       3.35552310      30.40182110       3.24785400      -0.01270700       0.24786600       0.02231600
Se       5.02663230      29.43700600       1.55407500       0.00404300      -0.14141800      -0.13932400
Se       5.02663230      29.43700600       4.94330980      -0.01103700      -0.14693800       0.11511100
Mo       6.69773300      30.40182110       3.24785400      -0.01271000       0.24787500       0.02231600
Mo       8.36883830       1.71850400       3.24785400      -0.00994700      -0.04772300       0.01956000
Se      10.03994750       0.75368880       1.55407500       0.00286700      -0.08940200      -0.01802500
Se      10.03994750       0.75368880       4.94330980      -0.01171500      -0.09518500      -0.00891600
Mo      11.71104820       1.71850400       3.24785400      -0.00990800      -0.04775700       0.01956000
Se       0.01331710       0.75368880       1.55407500       0.00262800      -0.08944000      -0.01804800
Se       0.01331710       0.75368880       4.94330980      -0.01170100      -0.09518700      -0.00891400
Mo       1.68441820       1.71850400       3.24785400      -0.00989900      -0.04774300       0.01956000
Se       3.35552690       0.75368880       1.55407500       0.00262900      -0.08943500      -0.01802400
Se       3.35552690       0.75368880       4.94330980      -0.01170000      -0.09518300      -0.00893800
Mo       5.02662750       1.71850400       3.24785400      -0.00988200      -0.04770300       0.01956000
Se       6.69773680       0.75368880       1.55407500       0.00262100      -0.08942700      -0.01800800
Se       6.69773680       0.75368880       4.94330980      -0.01170800      -0.09517400      -0.00895400
Se       8.36884210       3.64812760       1.55407500       0.00372100       0.69965000       0.23363700
Se       8.36884210       3.64812760       4.94330980      -0.01049400       0.69287900      -0.25858800
Mo      10.03994370       4.61294270       3.24785400      -0.02240700      -1.20708500       0.01286700
Se      11.71105200       3.64812760       1.55407500       0.00378600       0.69964900       0.23353800
Se      11.71105200       3.64812760       4.94330980      -0.01042800       0.69287700      -0.25848900
Mo       0.01331280       4.61294270       3.24785400      -0.02230500      -1.20710700       0.01286700
Se       1.68442200       3.64812760       1.55407500       0.00378300       0.69965000       0.23358900
Se       1.68442200       3.64812760       4.94330980      -0.01043100       0.69287900      -0.25853900
Mo       3.35552310       4.61294270       3.24785400      -0.02228100      -1.20714200       0.01286700
Se       5.02663230       3.64812760       1.55407500       0.00380400       0.69964900       0.23368200
Se       5.02663230       3.64812760       4.94330980      -0.01041000       0.69287800      -0.25863300
Mo       6.69773300       4.61294270       3.24785400      -0.02236500      -1.20722200       0.01286700
48
Lattice="13.3688398 0.0 0.0 0.0 31.577755 0.0 0.0 0.0 13.9842998" Properties=species:S:1:pos:R:3:forces:R:3 energy=-208.5708880000002 stress="0.003039 0.000132 -0.000282 0.000132 -0.000633 -0.000579 -0.000282 -0.000579 0.000367" pbc="T T T" 
Mo       8.40317249      27.44933276       3.26212580      -0.54113300       0.73542100      -0.36656300
Se      10.02987823      26.56622771       1.56612111       0.26990600      -0.05062900       0.22445000
Se      10.05865827      26.52464630       4.90497475       0.03573000      -0.26773500       0.06627700
Mo      11.70589385      27.53410716       3.28821871       0.38744600      -0.59285200      -0.73622300
Se      -0.01416172      26.58835532       1.52448218       0.14891400       0.25640000       0.99799800
Se      -0.02208490      26.58831211       5.03230450       0.33713700       0.26570300      -1.03266000
Mo       1.69115153      27.54776238       3.25254172      -0.37650200      -0.46178700      -0.33118900
Se       3.32317496      26.51575152       1.52617439       0.17603700       0.46088100       0.98817400
Se       3.38196525      26.52695082       4.89007779      -0.18158600       0.04204900      -0.36557700
Mo       5.05317539      27.53089137       3.26786211      -0.02263100      -0.77409700      -0.21167500
Se       6.71020456      26.57637078       1.57412208      -0.17203800      -0.15495700       0.31837000
Se       6.73398403      26.52858025       4.96904171      -0.19303700       0.06546100      -0.55938900
Se       8.36051512      29.44740390       1.55539333      -0.17601700      -0.32279500       0.17381900
Se       8.30364142      29.38730533       4.90262393       0.25192600       0.20497400       0.36305100
Mo      10.02893646      30.39441699       3.26159813       0.06116900      -0.14372500       0.06931400
Se      11.69119656      29.43800127       1.54114013       0.25358100      -0.07972500       0.24141200
Se      11.71168251      29.41771171       4.92679880      -0.04127100       0.40480500       0.62404100
Mo       0.04588322      30.40348287       3.27909615      -0.89008000       0.54948000      -1.15689200
Se       1.66168707      29.47641318       1.54116621       0.32254500      -0.26701600      -0.00647600
Se       1.65050028      29.45551042       4.94927202       0.65505200      -0.16616000       0.28128700
Mo       3.36800492      30.43013409       3.22803440      -0.52044300      -0.31587900       1.06326500
Se       5.04603356      29.41969330       1.60972142      -0.39972600       0.03415100      -1.03065500
Se       5.03612193      29.41706401       4.94590111      -0.34545900       0.28550300       0.36480200
Mo       6.63479614      30.45208661       3.25028584       1.04275400      -0.78618300      -0.37610400
Mo       8.34562831       1.74437250       3.22728735       0.34404900      -0.59040000       0.25533400
Se      10.06569908       0.67792521       1.58379808      -0.30834400       0.65119900      -0.34151700
Se      10.01682604       0.73915843       4.93544248       0.18158500       0.23364100      -0.25115500
Mo      11.72496590       1.76824466       3.19594503      -0.48730800      -1.14633700       0.86979000
Se       0.03389946       0.81110141       1.53225990       0.33362500      -0.42504600       0.40379700
Se      -0.01025791       0.74377604       4.91438193       0.29687900       0.44892000       0.08589400
Mo       1.73168627       1.77736140       3.26721765      -0.51014000      -0.69935800      -0.22538800
Se       3.40449335       0.74199681       1.59576466      -0.46687200       0.21863200      -0.62510400
Se       3.36036438       0.79154927       4.97464485       0.11682100      -0.33122900      -0.25307500
Mo       5.04587539       1.70576551       3.23667287       0.09456000       0.18198500       0.62622100
Se       6.68837722       0.77258236       1.53891168       0.13270700      -0.14430000      -0.23097000
Se       6.70694985       0.69282719       4.92927883      -0.05682300       0.82085800       0.40221500
Se       8.34785363       3.67830770       1.55715487       0.29969300       0.36987200      -0.23867600
Se       8.38600636       3.65977270       4.95625316      -0.50148000       0.51544700      -0.36033200
Mo      10.03086774       4.57749971       3.26973032       0.04459100      -0.72147000      -0.24826300
Se      11.72140804       3.66727124       1.57145734      -0.26971200       0.74444700      -0.53613300
Se      11.65267005       3.60381428       4.94863634       0.43355200       0.73424500       0.03644900
Mo      -0.01411599       4.54565463       3.25207988       0.36710000      -0.61656200       0.30643300
Se       1.72655523       3.67322457       1.53921220      -0.41116600       0.36576700       0.04494700
Se       1.70731410       3.68423038       4.96203147      -0.25058200       0.45236700      -0.05391700
Mo       3.39228069       4.51004165       3.23414063      -0.16836900       0.10065200       0.18799000
Se       4.98860781       3.60846638       1.52365965       0.47873000       0.47778300      -0.04360200
Se       5.02110665       3.64703300       4.93616048       0.45031900       0.37155800      -0.10687100
Mo       6.69087636       4.57889832       3.19286228      -0.26885500      -0.91261700       0.69833900
48
Lattice="13.3688398 0.0 0.0 0.0 31.577755 0.0 0.0 0.0 13.9842998" Properties=species:S:1:pos:R:3:forces:R:3 energy=-208.1347879999994 stress="0.002002 0.000174 -0.000437 0.000174 -0.00128 -0.00088 -0.000437 -0.00088 -0.001227" pbc="T T T" 
Mo       8.41921130      27.41486340       3.26395069      -0.67725600       1.16425300      -0.27126000
Se      10.03241830      26.58964589       1.59090138       0.43567300      -0.27009100      -0.27594500
Se      10.08115374      26.49113042       4.86446088       0.01328100      -0.46288100       0.47778600
Mo      11.71531992      27.54101737       3.30390475       0.32564800      -0.36405800      -0.78055900
Se      -0.03696665      26.65138558       1.54106640       0.29120900       0.02950200       0.73104200
Se      -0.04436330      26.65257105       5.07927199       0.58399200       0.18650400      -1.02031900
Mo       1.68334477      27.57482268       3.24479095      -0.40991100      -0.29580900      -0.30047400
Se       3.29582874      26.50867460       1.54510932       0.24417000       0.50610000       0.89596300
Se       3.40198056      26.51096624       4.81199204      -0.33750100      -0.16473800       0.07194100
Mo       5.08152663      27.52704438       3.28180243      -0.15985600      -0.51959000      -0.22055500
Se       6.71563656      26.60559321       1.61225263      -0.22522900      -0.50811200      -0.24895800
Se       6.76452997      26.51582140       4.96936934      -0.31394600      -0.05438800      -0.31600600
Se       8.34290283      29.44260505       1.56463611      -0.11435700      -0.34386400       0.17051300
Se       8.24458074      29.34236320       4.87626944       0.54107700       0.50867200       0.56755700
Mo      10.01871399      30.38031698       3.27977874      -0.00377000      -0.43598000       0.04572800
Se      11.68138016      29.43489717       1.53823762       0.27053300      -0.00004200       0.35484600
Se      11.71066861      29.41589106       4.93871836       0.00931700       0.61863900       0.56309300
Mo       0.04647774      30.42749580       3.26852574      -0.91820900       0.29906200      -1.04716900
Se       1.65239753      29.50698136       1.52642088       0.46143400      -0.25641100       0.17266100
Se       1.64372073      29.46775292       4.96928672       0.56332200      -0.10548000       0.08350900
Mo       3.36151191      30.44889233       3.24796390      -0.45183500      -0.67144300       0.96413200
Se       5.04713841      29.40189651       1.62140076      -0.69295600       0.18051600      -1.08510000
Se       5.03012830      29.40843159       4.96619904      -0.32981900       0.43444200       0.19393000
Mo       6.60684506      30.47672434       3.23819932       1.20096900      -1.20448400      -0.35884100
Mo       8.33322308       1.74989264       3.21441904       0.34432800      -0.54510400       0.22639700
Se      10.07884295       0.62565713       1.59968522      -0.45605000       1.04443300      -0.56256100
Se       9.99993226       0.73422653       4.91476406       0.22804300       0.31269600      -0.16740200
Mo      11.72105829       1.77866382       3.17251687      -0.49658300      -1.02645800       0.88810700
Se       0.07295622       0.85381198       1.52783143       0.24700900      -0.50400500       0.47482000
Se      -0.02177713       0.75466000       4.88651030       0.44470900       0.61665900       0.22313100
Mo       1.76365904       1.81503905       3.27974936      -0.62807900      -0.75852300      -0.28429800
Se       3.43585008       0.73947866       1.61184967      -0.66595200       0.30110000      -0.67164300
Se       3.37126418       0.81702892       4.99712964       0.08573200      -0.40216900      -0.33168100
Mo       5.07121543       1.69920066       3.24858328       0.07092400       0.38135900       0.47144100
Se       6.68452841       0.78601309       1.51109145       0.20680300      -0.20507100      -0.12763100
Se       6.71477250       0.66553494       4.93381903       0.00815400       1.13257900       0.53075000
Se       8.33992691       3.73046794       1.54812436       0.50913100      -0.27974800      -0.70580600
Se       8.37955981       3.69887745       4.95330674      -0.76147400       0.00544000      -0.07027000
Mo      10.02264197       4.50747761       3.28350270       0.11415900       0.16344100      -0.47501000
Se      11.71925972       3.72501586       1.56440455      -0.39508000       0.08792300      -0.92650600
Se      11.60962394       3.59112147       4.95669146       0.71230600       0.29460900       0.41995100
Mo      -0.02982531       4.44422638       3.26923918       0.51833800       0.22430600       0.32443600
Se       1.75226954       3.72078686       1.52431714      -0.71661200      -0.01347100      -0.28978500
Se       1.72036889       3.74745334       4.98045227      -0.31392000      -0.04932500       0.32898300
Mo       3.42601985       4.39784728       3.22650283      -0.28403900       1.13345500       0.21473300
Se       4.97047249       3.58871563       1.48721711       0.74413900       0.05952900      -0.34059300
Se       5.03741631       3.66527467       4.92470794       0.59460500      -0.06315800       0.57565200
Mo       6.67192298       4.50233179       3.16002753      -0.37739700      -0.15475700       0.89022300
48
Lattice="13.3688398 0.0 0.0 0.0 31.577755 0.0 0.0 0.0 13.9842998" Properties=species:S:1:pos:R:3:forces:R:3 energy=-208.2080879999994 stress="0.001206 9.7e-05 -0.000399 9.7e-05 -0.000776 -0.000761 -0.000399 -0.000761 -0.001741" pbc="T T T" 
Mo       8.41160985      27.41997202       3.25488661      -0.15420700       0.81796100       0.18985400
Se      10.05903723      26.60604016       1.61021240       0.27692900      -0.47419100      -0.54536000
Se      10.11105582      26.42214512       4.83426572      -0.19084900      -0.25676100       0.25796200
Mo      11.74088213      27.53579613       3.29260593      -0.36802600       0.67037700       0.32940800
Se      -0.05049020      26.73489335       1.60098806       0.51447700      -0.78502200      -0.47864000
Se      -0.04198075      26.74799279       5.08549416       0.69831600      -0.16845200      -0.60794700
Mo       1.65509921      27.59853845       3.22245502      -0.08865900       0.35338400       0.32280600
Se       3.27329900      26.52614904       1.61900462       0.33615600       0.14418000       0.27692100
Se       3.40973740      26.47995379       4.71163121      -0.47424700      -0.51894900       0.60802000
Mo       5.11136275      27.50083022       3.29079285      -0.49814300       0.67270600      -0.03661200
Se       6.71076893      26.61619806       1.64937017      -0.09299100      -0.88964700      -0.94764000
Se       6.78795365      26.49563839       4.95181883      -0.35869800      -0.22672300      -0.00991000
Se       8.31393937      29.41706569       1.58515692       0.21850600      -0.25402200      -0.20859900
Se       8.19594583      29.31032798       4.87268418       0.81662300       0.65865600       0.70783900
Mo      10.00471758      30.34446646       3.30508645      -0.15157600       0.03272000      -0.27662100
Se      11.68252700      29.43091035       1.55275122       0.01877300       0.14243600       0.10540900
Se      11.70987157      29.44562739       4.98386181       0.06521500       0.29039100      -0.10687700
Mo       0.00735757      30.47303324       3.21003466      -0.01492600      -0.22314900       0.38978600
Se       1.66472073      29.53349368       1.51623832       0.31555600      -0.13594600       0.35275300
Se       1.66385856      29.47798688       4.99981283      -0.23066500      -0.03453900      -0.37077800
Mo       3.33379464      30.44565717       3.31548153       0.20512700      -0.30103100      -0.36017000
Se       5.01159295      29.38785805       1.57955935      -0.56716700       0.21174000      -0.13937100
Se       5.00510862      29.41960235       5.00310884       0.05764800       0.20251900      -0.33785900
Mo       6.62147910      30.45815207       3.20755431       0.25382000      -0.48202500       0.29143800
Mo       8.33143078       1.73416942       3.20682681      -0.00074800       0.16745100      -0.09856900
Se      10.07143508       0.61093475       1.59127186      -0.43631100       0.69391900      -0.36656500
Se       9.98990294       0.74368728       4.87900368       0.19337400       0.00649500       0.24372700
Mo      11.69451196       1.74897692       3.18003774      -0.02846300       0.32339300       0.15068600
Se       0.13686169       0.88303453       1.54715479      -0.41515900      -0.39338200       0.13867900
Se      -0.01316426       0.80087962       4.86159994       0.34793200       0.14433000       0.35616500
Mo       1.77914329       1.83329461       3.28371001      -0.21121100       0.03286200      -0.19283600
Se       3.44178263       0.75136383       1.59920596      -0.48402100       0.00431400       0.13467500
Se       3.39027922       0.82889403       5.00911797      -0.05139100      -0.31286000      -0.25935900
Mo       5.10756235       1.70697051       3.28437509      -0.13777600       0.31554100      -0.35536700
Se       6.69069325       0.79187676       1.46865224       0.18898800      -0.32821900       0.41808300
Se       6.72607774       0.68809300       4.96653447       0.16649000       0.41252400      -0.03729700
Se       8.35614718       3.78656062       1.49917806       0.30319600      -0.63508700      -0.62797600
Se       8.33054495       3.75287624       4.94582408      -0.45048200      -0.35012700       0.39929200
Mo      10.01666551       4.41791948       3.28043401       0.12730200       0.29975900      -0.54778500
Se      11.69559812       3.80909425       1.50590091      -0.17637900      -0.40868200      -0.54323300
Se      11.59033243       3.59257357       4.99005208       0.58810200       0.02945500       0.61329500
Mo      -0.02768811       4.31402446       3.30506098       0.43022000       0.11588300      -0.24148700
Se       1.74775542       3.78590527       1.49040785      -0.67692400      -0.09208100      -0.18286100
Se       1.72171801       3.83204892       5.02244405       0.00692400      -0.16726000       0.55346300
Mo       3.45753713       4.29339338       3.22516154      -0.52041500       0.64463300      -0.02905000
Se       4.98607887       3.56862915       1.42096729       0.53830100       0.09601500      -0.32269400
Se       5.08985996       3.68807228       4.94126333       0.05107700      -0.21545000       1.36422600
Mo       6.63154501       4.39034596       3.15390262       0.10212200       0.19180300       0.06534800
48
Lattice="13.3688398 0.0 0.0 0.0 31.577755 0.0 0.0 0.0 13.9842998" Properties=species:S:1:pos:R:3:forces:R:3 energy=-207.91248799999994 stress="0.001028 -8.9e-05 -0.000319 -8.9e-05 -0.000245 -0.000495 -0.000319 -0.000495 -0.000749" pbc="T T T" 
Mo       8.39741309      27.45338480       3.25171067       0.26389900      -0.25538100       0.40729800
Se      10.09853347      26.60286996       1.60759669      -0.08609900      -0.34184000      -0.27587900
Se      10.13370507      26.34009175       4.81392624      -0.31923900       0.21494800      -0.19291800
Mo      11.75366776      27.55296035       3.29213143      -0.92733700       1.01083400       1.09632100
Se      -0.04200196      26.78661792       1.64234913       0.48677800      -1.30850900      -1.36341200
Se      -0.00875394      26.83927323       5.06454915       0.51253300      -0.54960300      -0.05402900
Mo       1.62284365      27.63514916       3.21114299       0.28954200       0.66339200       0.83532800
Se       3.26528883      26.55079500       1.70817343       0.39320700      -0.27406000      -0.34061800
Se       3.39694113      26.42534032       4.63367853      -0.40374700      -0.60027900       0.73081300
Mo       5.12472634      27.49625125       3.29834950      -0.51163500       1.16481200       0.06862800
Se       6.70150427      26.58891761       1.64794935       0.05922000      -0.70937300      -0.84591800
Se       6.79630917      26.46534186       4.93186390      -0.31539400      -0.19439800       0.00618400
Se       8.29356445      29.37947286       1.59667113       0.46549600      -0.05285800      -0.63190800
Se       8.18207955      29.30677978       4.90039502       0.88623000       0.64391200       0.60562100
Mo       9.98515555      30.30880287       3.32122568      -0.14774900       0.67583600      -0.53557500
Se      11.68430801      29.43305542       1.57199564      -0.28174100       0.22370500      -0.26955900
Se      11.71145415      29.48990304       5.02637321      -0.01577400       0.03533900      -0.59002700
Mo      -0.03412217      30.51190515       3.16310718       0.83387400      -0.63872100       1.56986700
Se       1.69100659      29.55504379       1.52073853      -0.03435000       0.05806900       0.30176700
Se       1.67544761      29.48721194       5.01672039      -0.76434600       0.08751700      -0.35677400
Mo       3.31201851      30.43102963       3.37305344       0.69801500       0.19138100      -1.39988600
Se       4.95021920      29.38272822       1.52893571      -0.09627300       0.17094100       0.67358100
Se       4.98168792      29.44028945       5.02719168       0.42800200      -0.08703700      -0.57972500
Mo       6.64658512      30.42048532       3.18580887      -0.60319400       0.26034300       0.75039400
Mo       8.32977708       1.72318295       3.19606413      -0.26060900       0.70108500      -0.21000600
Se      10.04453214       0.62715153       1.56632944      -0.22198200       0.22195000      -0.01529200
Se       9.98805755       0.75402959       4.85312138       0.09643700      -0.28220100       0.64038000
Mo      11.66498581       1.72912153       3.19420419       0.19017800       1.29759900      -0.43118100
Se       0.18453631       0.89607993       1.57253760      -0.99989700      -0.13064100      -0.39150000
Se       0.01122261       0.85555440       4.85149462       0.11161900      -0.32643600       0.37854700
Mo       1.78722064       1.85237576       3.28155935       0.24093300       0.60763800       0.11207700
Se       3.42628531       0.76480191       1.59046255      -0.16829500      -0.13677600       0.62622200
Se       3.40755752       0.82763201       5.00998180      -0.18465100      -0.06792100      -0.12905900
Mo       5.14105233       1.72674426       3.30833076      -0.09297200       0.16494300      -1.00985800
Se       6.70507967       0.78341935       1.44277767       0.02035300      -0.37480900       0.76191500
Se       6.74497677       0.73107429       4.99926004       0.19985900      -0.20293900      -0.51595100
Se       8.38583061       3.81758773       1.42157697      -0.14089800      -0.54130100      -0.07123100
Se       8.26085007       3.79439188       4.95447591       0.32071200      -0.34418900       0.42580200
Mo      10.01578270       4.33428796       3.25789620       0.21958600      -0.21155600      -0.26934900
Se      11.66361035       3.87949128       1.42217403       0.19198600      -0.46686500       0.26806900
Se      11.59590184       3.59636479       5.05022643       0.14583500       0.00998700       0.23014800
Mo      -0.01048457       4.18384721       3.33317193       0.10024400       0.01732100      -0.75210400
Se       1.71379950       3.84859118       1.44774521      -0.25295700      -0.24920800       0.18753400
Se       1.72324226       3.91154124       5.08891858       0.33401700      -0.30168200       0.21198200
Mo       3.47171530       4.20895332       3.22355082      -0.48969400      -0.07655600      -0.05698500
Se       5.02548246       3.55234866       1.33925566       0.00470900       0.23641900       0.03956900
Se       5.14573850       3.70361370       5.01628452      -0.66196900      -0.01283700       1.07818300
Mo       6.59390113       4.28001756       3.15032179       0.57025800       0.06443800      -0.68004900
48
Lattice="13.3688398 0.0 0.0 0.0 31.577755 0.0 0.0 0.0 13.9842998" Properties=species:S:1:pos:R:3:forces:R:3 energy=-208.17668799999956 stress="0.001894 -0.000265 -0.000188 -0.000265 2.9e-05 -0.000272 -0.000188 -0.000272 0.001018" pbc="T T T" 
Mo       8.39411093      27.47150158       3.26245840       0.16126600      -0.79363500       0.24967800
Se      10.12642562      26.58643437       1.59449158      -0.27103200      -0.02760500       0.14735700
Se      10.13843284      26.28459967       4.79072617      -0.27297100       0.51468000      -0.27948800
Mo      11.73481900      27.59851920       3.32593294      -0.39439400       0.22456200       0.41084300
Se      -0.01603654      26.77522763       1.62286245       0.10369900      -0.73761200      -0.55683100
Se       0.03762762      26.88736552       5.04544383      -0.02554200      -0.79896300       0.26210700
Mo       1.60688265      27.68457774       3.22828004       0.33220900       0.09336800       0.26715000
Se       3.27527208      26.55921957       1.76553372       0.28140100      -0.40407000      -0.37426100
Se       3.37030686      26.35815056       4.60166211      -0.15744000      -0.26753200       0.32270900
Mo       5.11828973      27.53022753       3.30608010      -0.19230500       0.48322100      -0.01708000
Se       6.69608240      26.53903619       1.61326600       0.00428700      -0.06934200      -0.08701400
Se       6.78921546      26.43374611       4.91563356      -0.30520100      -0.01681400      -0.16744100
Se       8.29588471      29.34766537       1.58078221       0.28431000       0.09924400      -0.45338100
Se       8.20827787      29.33077062       4.94675343       0.67465000       0.39422500       0.17182000
Mo       9.96522195      30.30420557       3.31560071       0.03844700       0.97265700      -0.52871000
Se      11.67498210      29.44385660       1.57683586      -0.18475900       0.16228100      -0.26143000
Se      11.71150502      29.52704111       5.03593272      -0.18526700       0.05555900      -0.54813900
Mo      -0.03939760      30.52149359       3.17809246       0.82701200      -0.45315500       1.35304500
Se       1.71020595      29.57419402       1.53662694      -0.30249400       0.13002500       0.09662100
Se       1.65426151      29.49930515       5.01529947      -0.54068300       0.39114900      -0.14646800
Mo       3.31783610      30.42572933       3.37213088       0.56878100       0.36678200      -1.18217000
Se       4.89840415      29.38636088       1.51580779       0.38441800       0.17477000       0.73618900
Se       4.98066600      29.45355628       5.02264489       0.46426700      -0.15036800      -0.37601800
Mo       6.64785379      30.39864956       3.19372207      -0.45808800       0.39817700       0.63856000
Mo       8.32036069       1.73810988       3.18162871      -0.13538300       0.72102400       0.11870300
Se      10.01434134       0.65032664       1.54545487       0.05157400       0.08809400       0.12295600
Se       9.99084305       0.75166356       4.85814630       0.03749000      -0.13364000       0.44702400
Mo      11.64730978       1.75616069       3.19174901       0.01173500       1.05547900      -0.36815700
Se       0.18089127       0.90031048       1.57789021      -0.99445000      -0.02722700      -0.30437900
Se       0.03485510       0.88614969       4.85912384      -0.12763300      -0.31406700       0.22523400
Mo       1.80129439       1.88662731       3.28323576       0.34410900       0.36315800       0.20062000