52
Lattice="13.074336 0.0 0.0 0.0 17.9157 0.0 0.0 0.0 20.0" Properties=species:S:1:pos:R:3:forces:R:3 energy=-231.5078889999986 stress="-0.0043439875992271676 -0.00040408119344349775 -7.482985063768477e-05 -0.00040408119344349775 -0.004474825068133549 -0.00011844234027314521 -7.482985063768477e-05 -0.00011844234027314521 -0.0063539265689321455" pbc="T T T" 
Mo      12.47934801       5.12025600      10.53211600       0.22325348      -0.01766042      -0.10120732
Mo       1.04561900       2.23209800      10.53774300      -0.24580977      -0.23651850       0.06831257
Mo      12.48653400      17.16708001      10.54009800      -0.31382204      -0.15906846       0.00279348
Mo       1.27338200      14.51561599      10.53825300      -0.69116357      -0.54924141      -0.04122618
Mo       2.71914600       5.07586201      10.56516300      -0.48681968       0.39316166       0.06240551
Mo       4.28477500       2.22944501      10.54197000       0.42766808      -0.24505371       0.01119039
Mo       2.72120800      17.27547300      10.54201400      -0.80724472       0.13934840      -0.02645737
Mo       4.07674100      14.44037299      10.54282000       0.42998094      -0.01258085      -0.08565852
Mo       5.94218599       5.12022599      10.53213700       0.20677980      -0.01905447      -0.10196199
Mo       7.58279000       2.23209900      10.53773600      -0.32521552      -0.20203730       0.00411652
Mo       5.94936800      17.16708099      10.54009900      -0.30736643      -0.15876653       0.00286429
Mo       7.81055200      14.51561599      10.53825400      -0.69130138      -0.54899250      -0.04144439
Mo       9.25634400       5.07596300      10.56516300      -0.48653752       0.38757565       0.05717561
Mo      10.82194401       2.22945800      10.54197000       0.50549645      -0.21136480      -0.05024743
Mo       9.25837700      17.27547501      10.54201400      -0.80735803       0.13556063      -0.02663090
Mo      10.61390800      14.44037400      10.54282000       0.42991895      -0.01240239      -0.08590293
Se      12.47518000       3.21037899      12.20539500      -0.02158747       0.17025355       0.77741388
Se      12.48345099       3.19305100       8.88216900      -0.13281145       0.13993765      -0.75929459
Se       0.99023900       0.30418300      12.19077100       0.34172195      -0.03867176       0.67647084
Se       0.99632800       0.30514900       8.88886900       0.31826639      -0.05287202      -0.67549387
Se       1.09180300       6.15820500      12.14493300      -0.08844668       0.16175184       0.12551959
Se       1.01941999       6.17555301       8.96746900       0.29994350       0.19683529      -0.17025468
Se      12.46777700      15.11216000      12.17847800       0.06821623       0.06794915       0.38772974
Se      12.46901400      15.12129300       8.89982100       0.04728251       0.02058963      -0.35895336
Se       2.61347701      12.55125500      11.70697700       0.02207161      -0.23608030       0.19164575
Se       2.61386599      12.55918200       9.36281900       0.03349651      -0.24008282      -0.16971398
Se       2.66550301       3.17258900      12.22681300       0.01691015       0.00031288       0.79958455
Se       2.66860000       3.21191899       8.85171700       0.01573924       0.04441260      -0.75858124
Se       4.34305100       0.31601301      12.20222800       0.23095885       0.00704521       0.78267333
Se       4.34732100       0.32058601       8.88037200       0.16391676      -0.01714561      -0.77375715
Se       4.28234700       6.16254599      12.16024100       0.18700871       0.21504978       0.28314857
Se       4.34982400       6.18545800       8.94231000      -0.17369600       0.17396090      -0.23016150
Se       2.68383300      15.52822300      12.33661400       0.11195294       0.06361326       0.56601087
Se       2.69212400      15.53643601       8.74190400       0.07888014      -0.00385241      -0.50887206
Se       5.93803800       3.21033200      12.20539600      -0.01524597       0.17052295       0.77756336
Se       5.92805700       3.19303601       8.88216100       0.05823367       0.14364762      -0.75971612
Se       7.52741000       0.30418700      12.19077000       0.34461082      -0.03533408       0.67380201
Se       7.53349800       0.30514900       8.88886700       0.31595482      -0.04528669      -0.67610991
Se       7.62898100       6.15821301      12.14493300      -0.08347609       0.15922429       0.12695252
Se       7.55654701       6.17554399       8.96745400       0.29439439       0.19095770      -0.16854855
Se       5.93060900      15.11216000      12.17847900       0.06841397       0.06801306       0.38739460
Se       5.93184600      15.12129300       8.89982100       0.04784628       0.02064228      -0.35864357
Se       9.15064501      12.55125500      11.70697800       0.02199592      -0.23625655       0.19173983
Se       9.15103399      12.55918099       9.36281900       0.03342301      -0.23982476      -0.16961268
Se       9.20267400       3.17264000      12.22677700       0.01644287      -0.00196605       0.79251530
Se       9.20578100       3.21197899       8.85173000       0.01578290       0.04729352      -0.75888265
Se      10.88021700       0.31602200      12.20222900       0.22811677       0.01057999       0.78024700
Se      10.88448900       0.32059199       8.88037200       0.16629012      -0.00906805      -0.77445852
Se      10.81949700       6.16255800      12.16022900       0.18334116       0.21341757       0.28445924
Se      10.88728401       6.18597700       8.94213100      -0.16927885       0.16505561      -0.22499353
Se       9.22100200      15.52822300      12.33661300       0.11187064       0.06456521       0.56605368
Se       9.22929200      15.53643601       8.74190400       0.07879396      -0.00385385      -0.50942307
52
Lattice="13.074336 0.0 0.0 0.0 17.9157 0.0 0.0 0.0 20.0" Properties=species:S:1:pos:R:3:forces:R:3 energy=-231.3260679999985 stress="-0.0041543880390224825 0.00030537924321587674 0.00025708414943008265 0.00030537924321587674 -0.004172200297947281 7.8227034040868e-05 0.00025708414943008265 7.8227034040868e-05 -0.0072270945193178915" pbc="T T T" 
Mo      12.47934801       5.12025600      10.53211600      -0.53380315       0.34396167      -0.29412031
Mo       1.02001499       2.24941499      10.43747400       0.14369994      -0.16770166      -0.19333185
Mo      12.42962401      17.21034900      10.40754400       0.17587964      -0.37284410      -0.02767924
Mo       1.24116800      14.54820401      10.44324700      -0.24727659      -0.56593538       0.06109916
Mo       2.61651400       5.12396299      10.61820900       0.18258829       0.08282228      -0.36311302
Mo       4.29981600       2.25893199      10.43001300       0.29319742      -0.11251866      -0.14682185
Mo       2.63062600      17.28085000      10.40882900       0.44550490       0.59039696      -0.15288873
Mo       4.08962600      14.46474599      10.43974200      -0.00030630      -0.46353440      -0.19228112
Mo       5.88702800       5.12277600      10.40146400       0.18182234       0.24822501       0.14937949
Mo       7.55865899       2.25453301      10.43842200       0.08585228      -0.06545178      -0.09394711
Mo       5.89191800      17.21022599      10.40783200       0.17242917      -0.36011177      -0.02108356
Mo       7.77818800      14.54841000      10.44343600      -0.24468576      -0.57489807       0.07843043
Mo       9.15829000       5.12257401      10.62250900       0.32658271       0.08079106      -0.36446454
Mo      10.83561600       2.26087601      10.43063100       0.39568185      -0.11079499      -0.19175806
Mo       9.16742199      17.28176999      10.41004400       0.41230409       0.62927947      -0.11820925
Mo      10.62678700      14.46517400      10.43927500      -0.00106271      -0.45146713      -0.19350322
Se      12.48522100       3.19742800      12.14083200      -0.12848732      -0.07868286       0.83341860
Se      12.48236100       3.27172900       8.78539500      -0.06599989       0.04777552      -0.65407607
Se       0.96997500       0.30687301      12.06926600      -0.06518781       0.01190665       0.74099307
Se       0.97333401       0.34117701       8.75897200      -0.04098717       0.04493368      -0.69823050
Se       0.99752901       6.25775400      12.12261000       0.01900871       0.12854987       0.52020900
Se       0.99071100       6.26437301       8.99749200       0.12072991       0.13465524      -0.37680759
Se      12.48421501      15.17826600      12.07997200      -0.22689046       0.08802604       0.31511443
Se      12.47934100      15.15343000       8.77852500      -0.09475603       0.03305881      -0.31351839
Se       2.62249800      12.65009900      11.67823800       0.01846242      -0.33452209       0.65326861
Se       2.42217900      12.45543099       9.38614200       0.43399273       0.10965787      -0.69983155
Se       2.68571500       3.12711800      12.13597500      -0.34370651       0.06986768       0.94155209
Se       2.67919000       3.32057900       8.79097900      -0.26309453       0.01040631      -0.47004179
Se       4.29835300       0.33161500      12.06795200       0.05713526      -0.02087013       0.71949479
Se       4.29736100       0.35484000       8.74879200      -0.04547163      -0.03440915      -0.61962154
Se       4.24471700       6.16366900      12.10482700       0.11064571       0.26575431       0.50047195
Se       4.25504100       6.27223200       8.99127500      -0.17418873       0.20948964      -0.46960151
Se       2.70738301      15.56541499      12.20730200      -0.10699922       0.11725460       0.81837469
Se       2.70914200      15.51260300       8.63774400      -0.16082447      -0.10645908      -0.58200493
Se       5.93182100       3.26147199      12.12256200      -0.02290550      -0.05307274       0.65964343
Se       5.94416200       3.22289100       8.75066900      -0.07812274       0.05144096      -0.63388401
Se       7.50213600       0.31346000      12.06973500      -0.05591746       0.02980750       0.74118526
Se       7.51129100       0.34053600       8.76058600      -0.03825411       0.04510319      -0.69287698
Se       7.54349700       6.22854200      12.07604700      -0.16895779       0.14575875       0.39056235
Se       7.52230899       6.30044500       9.00373600       0.18229580       0.14561169      -0.46370865
Se       5.94708100      15.17849499      12.08026600      -0.22860284       0.08397105       0.31971279
Se       5.94228000      15.15293400       8.77928900      -0.09473367       0.03639029      -0.31996911
Se       9.16280100      12.64927899      11.67647100       0.00931269      -0.33086316       0.64453059
Se       8.95815900      12.45648700       9.38396200       0.43550521       0.11348375      -0.69203815
Se       9.22750700       3.13696700      12.13614700      -0.35368733       0.02425080       0.97451116
Se       9.21385500       3.32377701       8.78892300      -0.24924284       0.03653448      -0.44531042
Se      10.83325100       0.32865900      12.06762700       0.06255530      -0.01719456       0.71069711
Se      10.83448599       0.35469800       8.74791000      -0.03899009       0.01700569      -0.58613140
Se      10.79979600       6.26265299      12.09868200       0.16229414       0.07045384       0.32106874
Se      10.82120400       6.23355000       9.01797800       0.02247335       0.18700355      -0.26712612
Se       9.24407900      15.56520799      12.20804300      -0.11011758       0.11574380       0.81482251
Se       9.24467900      15.51694100       8.64084600      -0.14835634      -0.14433141      -0.62108095
52
Lattice="13.074336 0.0 0.0 0.0 17.9157 0.0 0.0 0.0 20.0" Properties=species:S:1:pos:R:3:forces:R:3 energy=-230.50044499999967 stress="-0.004322961788434493 0.00022191871041875346 0.0005163718772838517 0.00022191871041875346 -0.0051367249371483585 0.00019722026891993484 0.0005163718772838517 0.00019722026891993484 -0.007453420386584017" pbc="T T T" 
Mo      12.47934801       5.12025600      10.53211600      -0.40309838       0.14768973       0.01127866
Mo       1.01921300       2.24019500      10.44427000       0.10448969      -0.29569545      -0.04995515
Mo      12.47285600      17.20858300      10.44250600       0.22031276      -0.22154665      -0.13438442
Mo       1.24867200      14.53452000      10.46366800      -0.33808006      -0.52997524       0.50563856
Mo       2.62339399       5.11944499      10.48119200       0.22327606       0.08492120       0.03516125
Mo       4.29123199       2.24674799      10.44624500       0.36865853      -0.09413138       0.12910806
Mo       2.67406500      17.28482999      10.44491000       0.19510892       0.67633612      -0.03541371
Mo       4.14187100      14.50496900      10.45912000       0.12856298      -0.86298040      -0.14792679
Mo       5.87680100       5.11936000      10.39929300      -0.28585481       0.00365909      -0.12914436
Mo       7.55755300       2.24830800      10.44766100       0.06734766      -0.17741899       0.13388962
Mo       5.93515800      17.21113201      10.44157000       0.18551909      -0.16515912      -0.09128790
Mo       7.78446500      14.54034500      10.46310700      -0.33223180      -0.36800431       0.43734458
Mo       9.18373900       5.07301500      10.53699100       0.66579755       0.19148128       0.00972348
Mo      10.83101200       2.24563399      10.44082400       0.36352355      -0.12368185      -0.25328659
Mo       9.21046900      17.28583200      10.44427900       0.23625740       0.72635912      -0.06167781
Mo      10.67309400      14.50016200      10.44144000       0.01680473      -0.79199036      -0.10556169
Se      12.48125700       3.18641501      12.13535700      -0.14006487      -0.02188693       0.83281411
Se      12.47628400       3.25911000       8.78950900      -0.04291686       0.08315442      -0.70917983
Se       1.01079000       0.31371399      12.10445500      -0.02536345       0.06710353       0.69330769
Se       1.00792900       0.32149301       8.78112400       0.00170899       0.07935482      -0.64742226
Se       0.98127200       6.24910100      12.09236400       0.02515107       0.03447204       0.34220491
Se       1.02174500       6.28814600       8.98129600       0.11865542       0.18625582      -0.58289415
Se      12.49936900      15.19112099      12.09781900      -0.15603378       0.05400911       0.39098075
Se      12.51039600      15.19163301       8.78613200      -0.08299272      -0.04584311      -0.37624984
Se       2.71403800      12.64172299      11.57995100      -0.00560840      -0.25622775       0.51614028
Se       1.91084000      12.28819800       9.40855400       0.42873493       0.00498552      -0.58800913
Se       2.65729600       3.19764600      12.12635300      -0.14666090      -0.05469817       0.77176527
Se       2.65925800       3.22993601       8.77581400      -0.06656000       0.06426259      -0.65301883
Se       4.34988100       0.33518100      12.11287900      -0.14496847       0.01906352       0.60927058
Se       4.34095300       0.33252200       8.77567500      -0.17266216      -0.01042750      -0.61111810
Se       4.23680100       6.11995299      12.07982600      -0.00699880       0.25669292       0.39298253
Se       4.26868400       6.17680900       8.86143900      -0.00331875       0.31315944      -0.45362450
Se       2.71682100      15.55550901      12.24060600      -0.06778861       0.02848243       0.80640140
Se       2.71600600      15.48793799       8.71340800      -0.11272792       0.08213117      -1.04803181
Se       5.92578300       3.25675799      12.12705900      -0.01794196       0.05302021       0.65521340
Se       5.93798799       3.20205400       8.76859000      -0.11967746       0.06110333      -0.70939577
Se       7.54500700       0.31898800      12.10444800      -0.03923167       0.05740466       0.69413787
Se       7.54520400       0.32616200       8.78344500      -0.00464069       0.07024162      -0.63927304
Se       7.58391500       6.37503200      11.86771700      -0.16719749       0.28273701       0.47851918
Se       7.51862801       6.36902900       9.05591800       0.17561202       0.28700450      -0.51613913
Se       5.97075201      15.20552199      12.10552800      -0.17695071       0.01651713       0.40092197
Se       5.97074400      15.19578900       8.78834600      -0.10290833      -0.05104550      -0.34335214
Se       9.24992200      12.64414400      11.58079000      -0.02019576      -0.27315456       0.47999705
Se       8.45883100      12.31544599       9.40024200       0.50009230      -0.08311912      -0.61394246
Se       9.22256400       3.15094199      12.13703800      -0.35261009       0.03040705       0.86722910
Se       9.18447699       3.24641499       8.76779000       0.03084314       0.04784543      -0.60122876
Se      10.88767600       0.33112300      12.11077600      -0.12776707      -0.02128475       0.60060198
Se      10.88125100       0.33403600       8.77335400      -0.15338856       0.00613512      -0.59468122
Se      10.79896700       6.18492200      12.08148000      -0.02877150       0.22810580       0.44977360
Se      10.83272100       6.14879100       8.93275400       0.00885465       0.21746395      -0.38434473
Se       9.25658900      15.55474401      12.23510000      -0.02573690       0.02364150       0.79386963
Se       9.24897200      15.50553700       8.69549200      -0.12833621      -0.04324208      -0.86909204
52
Lattice="13.074336 0.0 0.0 0.0 17.9157 0.0 0.0 0.0 20.0" Properties=species:S:1:pos:R:3:forces:R:3 energy=-230.3308909999996 stress="-0.005103946708096023 0.00029087235192660777 9.181576765360095e-08 0.00029087235192660777 -0.005725631270878555 0.00022669313033674073 9.181576765360095e-08 0.00022669313033674073 -0.006852027108452932" pbc="T T T" 
Mo      12.47934801       5.12025600      10.53211600       0.10038855       0.26689819      -0.17291624
Mo       1.02235801       2.23720301      10.44893500       0.27703682      -0.24034062       0.06267959
Mo      12.49334300      17.23905900      10.44696600       0.05519413      -0.32950826       0.05399227
Mo       1.16531501      14.53196600      10.46544800       0.75174797      -0.83197999       0.52689541
Mo       2.72054501       5.05566401      10.45008700      -0.22323888       0.40405933      -0.12323376
Mo       4.33831701       2.22585699      10.47880900      -0.02168273      -0.04011939      -0.05818322
Mo       2.67127900      17.32965500      10.44903000       0.11526876       0.26737145       0.12568031
Mo       4.15033700      14.52012201      10.47778500       0.27543323      -0.67845795      -0.01063683
Mo       5.85603200       5.10475999      10.41530500      -0.17367261      -0.30237800      -0.11843934
Mo       7.57394500       2.26837400      10.45342900       0.16441671       0.06711667       0.23752136
Mo       5.95571900      17.24128400      10.44720300       0.01432020      -0.29509849       0.10822296
Mo       7.70396499      14.53984099      10.46543000       0.52849011      -0.67521938       0.57938313
Mo       9.33512801       5.05966600      10.47051300      -0.01089230       0.29575962      -0.07921454
Mo      10.82960600       2.24609600      10.44597200       0.42884096      -0.22342500      -0.05885268
Mo       9.21250600      17.30728500      10.45134200       0.15217996       0.53310309       0.05216368
Mo      10.68658500      14.52045599      10.47965200       0.09986405      -0.72972821      -0.13813716
Se      12.48023099       3.18953700      12.13816500      -0.14294563      -0.03804770       0.70437084
Se      12.48851200       3.26244700       8.79440600      -0.03282965       0.09805821      -0.80056155
Se       1.01769200       0.33503300      12.13402900      -0.01330759       0.06041918       0.57850844
Se       1.01026300       0.33537400       8.78068500       0.05798419       0.11706797      -0.78573140
Se       0.99132600       6.24425199      11.97859100       0.21743009       0.21618711       0.58226479
Se       1.17295400       6.24586201       8.98900800      -0.22177024       0.15610727      -0.47671210
Se      12.49929900      15.23539200      12.12169300      -0.25822151       0.11855496       0.52511837
Se      12.49075700      15.23237700       8.78948200      -0.34736247       0.05691178      -0.42251558
Se       2.68270300      12.58556200      11.43332000       0.03452089      -0.17917739       0.18010085
Se       1.38724700      12.22483700       9.45633800      -0.10898475      -0.01061231      -0.29430741
Se       2.67363499       3.18128900      12.13952600      -0.13824496      -0.07085652       0.73364382
Se       2.70597901       3.15241800       8.78148100      -0.08609167       0.10218886      -0.64713682
Se       4.35272900       0.32997100      12.13189600      -0.04881070      -0.06584889       0.66798129
Se       4.34860800       0.33491400       8.78458600      -0.09099749       0.00904820      -0.66310951
Se       4.25490800       6.07403400      12.12183500       0.02600077       0.21819717       0.34508074
Se       4.32604900       6.15083400       8.80638200       0.11125907       0.17241935      -0.33530322
Se       2.70126399      15.55441199      12.23473100      -0.16806801      -0.01316919       0.63779173
Se       2.69734100      15.46204699       8.75574400      -0.21127283       0.14494135      -1.04297916
Se       5.95031800       3.25180900      12.15589600       0.03326064       0.10722897       0.55232411
Se       5.94958500       3.20022000       8.77393900      -0.02845417       0.10319128      -0.69704458
Se       7.56226700       0.34858199      12.12611100      -0.01237786       0.00084152       0.55315198
Se       7.55894000       0.34561800       8.79380700       0.04951302       0.05046850      -0.75923993
Se       7.60427599       6.49281099      11.66564000      -0.03662922       0.53575320       0.15738333
Se       7.58365101       6.53967900       9.24909600       0.31795933       0.38925032      -0.06392401
Se       5.95996801      15.24159500      12.12365800      -0.24871049       0.09303085       0.46896231
Se       5.95322000      15.23845300       8.79080900      -0.35466414       0.03480955      -0.42296668
Se       9.17235501      12.62894399      11.46727500       0.12239717      -0.34069984       0.32207741
Se       8.01587600      12.22578300       9.43092800       0.02522412       0.02818911      -0.33846542
Se       9.23108700       3.18713601      12.15175300      -0.20679778       0.07822541       0.69670180
Se       9.21727300       3.20734599       8.75582000      -0.09900388       0.09569626      -0.72655776
Se      10.88749500       0.33527701      12.12120900      -0.08280531       0.02550187       0.56584254
Se      10.88316300       0.33414300       8.78049400      -0.12888077       0.00426006      -0.63285961
Se      10.84513100       6.14073099      12.13843300      -0.11510030       0.13960055       0.33127970
Se      10.89414500       6.12072100       8.80888400       0.04795632      -0.01655163      -0.13723989
Se       9.23838600      15.55372801      12.24429900      -0.16610413      -0.04314859       0.70019508
Se       9.23340000      15.45456800       8.74905800      -0.17123394       0.10377449      -1.06611572
52
Lattice="13.074336 0.0 0.0 0.0 17.9157 0.0 0.0 0.0 20.0" Properties=species:S:1:pos:R:3:forces:R:3 energy=-230.7863469999993 stress="-0.004167517693796947 -0.00011587149877884439 -0.0002254077095895903 -0.00011587149877884439 -0.005887410653484199 -4.636696266506848e-05 -0.0002254077095895903 -4.636696266506848e-05 -0.006388173850266939" pbc="T T T" 
Mo      12.47934801       5.12025600      10.53211600       0.63641917       0.28653119      -0.00918010
Mo       1.07297900       2.21391400      10.47737500      -0.11710322      -0.01477017      -0.18754427
Mo      12.49608100      17.25710400      10.44842700       0.30756945       0.01957494       0.11195543
Mo       1.16742200      14.53285201      10.46088500       0.56532819      -0.69242312       0.50449478
Mo       2.71676901       5.05456601      10.45635400      -0.23118971       0.27260995      -0.01651805
Mo       4.36048300       2.21391701      10.48351100      -0.00376749       0.03114151      -0.06290091
Mo       2.68646700      17.26639200      10.45722500       0.17708675       0.45713521       0.22618716
Mo       4.14253800      14.52582900      10.48633700       0.37062794      -0.56060240       0.02182625
Mo       5.86512600       5.05710400      10.41411100       0.03274406       0.24223054      -0.11231176
Mo       7.58754199       2.27208101      10.45331500       0.32078579       0.06690409       0.26834174
Mo       5.95828900      17.25645199      10.44968400       0.30006512      -0.00065730       0.18930157
Mo       7.70588500      14.53911999      10.46093800       0.57845791      -0.49316177       0.55781604
Mo       9.36309500       5.12551100      10.49109900      -0.59751599       0.14029807       0.15821300
Mo      10.83264100       2.25135999      10.44939100       0.36549060      -0.28097259      -0.00893129
Mo       9.22228200      17.27371400      10.45986600       0.28080809       0.65656677      -0.01431194
Mo      10.67934600      14.52666299      10.48637700       0.46094795      -0.45916342       0.01091295
Se      12.48855600       3.18968201      12.14163000      -0.11479730      -0.16132265       0.69330368
Se      12.51723300       3.23880200       8.82217100       0.00314284       0.01505175      -0.75200179
Se       1.04349000       0.31729101      12.13702800       0.02714489      -0.10842641       0.62774828
Se       1.05037599       0.33005700       8.78464200       0.00234947      -0.02646249      -0.67102365
Se       1.01074600       6.13318900      12.09748600       0.05013844       0.18170730       0.25152844
Se       1.15625999       6.21942501       8.98282600      -0.14197273       0.22352360      -0.39824308
Se      12.49893300      15.25305801      12.12457300      -0.23841952       0.13459358       0.53909571
Se      12.46910100      15.29442500       8.79319200      -0.27673652      -0.06082943      -0.48048594
Se       2.72635100      12.55090000      11.15807000      -0.01103201      -0.25985247      -0.12279695
Se       0.81406499      12.34271700       9.45982300      -0.26373185      -0.26444608      -0.07508522
Se       2.70655600       3.16615500      12.14813400      -0.08810762       0.07842575       0.82308858
Se       2.72358200       3.15431900       8.78874200      -0.01057515       0.07314537      -0.61079854
Se       4.35497901       0.32178000      12.13463100      -0.08560435      -0.19796087       0.66867220
Se       4.34871100       0.32928800       8.78385900      -0.13339257      -0.10537968      -0.58645376
Se       4.25829900       6.05572901      12.11923800       0.03215910       0.20599261       0.34415044
Se       4.35708101       6.14314300       8.81165200      -0.05370765       0.05976517      -0.19874485
Se       2.70710699      15.48463701      12.29320200      -0.16430996       0.08580307       0.40779702
Se       2.69921300      15.40369601       8.71250600      -0.27295293       0.15465513      -0.97297927
Se       5.97592801       3.24219000      12.18423800      -0.07327598       0.01984686       0.38855455
Se       5.97241100       3.17000399       8.76607000      -0.11359999       0.12960392      -0.76023454
Se       7.59159000       0.34171200      12.11952200      -0.08681503       0.02534234       0.56773860
Se       7.58748000       0.34285200       8.78946700       0.01949742       0.00278656      -0.64135145
Se       7.56150600       6.55055301      11.66196500       0.04394232       0.25237403       0.28823940
Se       7.57386100       6.58930800       9.28595700       0.34234637       0.23775283      -0.29373457
Se       5.96234200      15.25075899      12.12499200      -0.22811971       0.12647792       0.55300276
Se       5.93147300      15.29968399       8.79409300      -0.26177303      -0.09076139      -0.50050445
Se       9.25789201      12.57219999      11.18670200      -0.00158789      -0.36728278      -0.07195868
Se       7.39326300      12.35757000       9.45498200      -0.31015479      -0.44252497      -0.14969684
Se       9.22574000       3.21796101      12.14565000      -0.08691990       0.05328583       0.59819681
Se       9.22984301       3.27051499       8.77186100      -0.03924892      -0.00779587      -0.68067974
Se      10.88574999       0.33748700      12.12057400      -0.11292960      -0.00585880       0.59957804
Se      10.88309400       0.34059899       8.78032500      -0.17040299      -0.01512971      -0.58495432
Se      10.83137299       6.15467399      12.15913100       0.05527407       0.20078114       0.41666339
Se      10.96388300       6.12536900       8.81758700      -0.08800964       0.15438242      -0.34206890
Se       9.24500100      15.51083499      12.28697200      -0.16447562      -0.07518433       0.51563303
Se       9.23805500      15.41887401       8.71998900      -0.27714949       0.08796827      -1.05033791
52
Lattice="13.074336 0.0 0.0 0.0 17.9157 0.0 0.0 0.0 20.0" Properties=species:S:1:pos:R:3:forces:R:3 energy=-231.16012099999898 stress="-0.0033185891060717523 -0.00026782659424555395 -0.0004778092548693393 -0.00026782659424555395 -0.006469706251943336 0.00043952207975778775 -0.0004778092548693393 0.00043952207975778775 -0.006588607671054751" pbc="T T T" 
Mo      12.47934801       5.12025600      10.53211600       0.71569004       0.11813081      -0.09796799
Mo       1.04515800       2.21419199      10.45413200       0.17208729       0.05904341      -0.00202899
Mo      12.49719300      17.26136899      10.44808900       0.35426184       0.40787040       0.14058024
Mo       1.14360400      14.51397001      10.45450100       0.16538183      -0.48421836       0.42630259
Mo       2.67955300       5.12160500      10.46150800       0.40582393      -0.43472822       0.00926302