6
Lattice="5.892795 0.0 0.0 0.0 3.349544 0.0 0.0 0.0 19.807568" Properties=species:S:1:pos:R:3:forces:R:3 energy=-28.558291000000054 stress="0.005671184520659969 -9.181576765360095e-08 2.534115187239386e-05 -9.181576765360095e-08 0.003827615721943316 9.181576765360095e-08 2.534115187239386e-05 9.181576765360095e-08 0.002005623628625259" pbc="T T T" 
Mo       0.00004800      -0.00001000      10.00005599      -0.85615039       0.00017008       0.01129172
Mo       2.90081700       1.67477100      10.00005900       0.10100865      -0.00007320       0.01284752
Se       1.93410800      -0.00000500      11.69413701      -0.10345094       0.00002239       0.01600831
Se       1.93391400      -0.00000500       8.30693200      -0.08995594       0.00002615      -0.02993019
Se       4.83487600       1.67476800      11.69414200       0.47705247      -0.00003782      -0.26656073
Se       4.83468400       1.67476600       8.30692901       0.46919926      -0.00002396       0.25104647
6
Lattice="5.805574 0.0 0.0 0.0 3.348787 0.0 0.0 0.0 19.828613" Properties=species:S:1:pos:R:3:forces:R:3 energy=-28.612928999999895 stress="0.0006152574590467799 2.4790257266472253e-06 4.8478725321101295e-05 2.4790257266472253e-06 0.0010425680417066388 3.672630706144038e-07 4.8478725321101295e-05 3.672630706144038e-07 -0.000452559918764599" pbc="T T T" 
Mo       0.22564200      -0.00001800      10.00013301      -0.00105595      -0.00035216       0.00283621
Mo       3.12843000       1.67437500      10.00013301      -0.00109352      -0.00034746       0.00283346
Se       2.15968300      -0.00003000      11.69331701       0.01374568       0.00010516       0.02426780
Se       2.15951100      -0.00004300       8.30702199       0.02075292       0.00025798      -0.02245337
Se       5.06247000       1.67436400      11.69331701       0.01374859       0.00010413       0.02427245
Se       5.06229800       1.67435100       8.30702199       0.02075580       0.00025690      -0.02245810
6
Lattice="5.504152 0.0 0.0 0.0 3.368966 0.0 0.0 0.0 19.833528" Properties=species:S:1:pos:R:3:forces:R:3 energy=-28.44649400000003 stress="-0.018693231215434883 3.488999170836836e-06 2.754473029608028e-07 3.488999170836836e-06 -0.002430271554023163 4.5907883826800474e-07 2.754473029608028e-07 4.5907883826800474e-07 -0.0004218934523682963" pbc="T T T" 
Mo       0.25921900      -0.00004100      10.00000401      -0.00815693      -0.00068260       0.00428557
Mo       3.01129500       1.68444200      10.00000401      -0.00815688      -0.00067574       0.00428559
Se       2.12000200      -0.00005200      11.72053200       0.00989453      -0.00019031       0.01675634
Se       2.11978500      -0.00005400       8.27963800       0.00960636       0.00039996      -0.01939381
Se       4.87207800       1.68443000      11.72053200       0.00989451      -0.00018090       0.01675624
Se       4.87186100       1.68442900       8.27963800       0.00960636       0.00039978      -0.01939383
6
Lattice="5.207936 0.0 0.0 0.0 3.385038 0.0 0.0 0.0 19.833512" Properties=species:S:1:pos:R:3:forces:R:3 energy=-27.85872100000006 stress="-0.0434748577997477 1.8546785066027393e-05 7.161629876980873e-06 1.8546785066027393e-05 -0.009061757188572146 7.345261412288076e-07 7.161629876980873e-06 7.345261412288076e-07 -0.0009562612201122538" pbc="T T T" 
Mo       0.22605100      -0.00002400       9.99992601      -0.04307354      -0.00126809      -0.00052605
Mo       2.83001900       1.69249500       9.99992700      -0.04307346      -0.00126807      -0.00055292
Se       2.01690800      -0.00002400      11.74678900       0.03526685      -0.00025732       0.04352677
Se       2.01675100      -0.00002700       8.25294100       0.03779211      -0.00000352      -0.04388483
Se       4.62087600       1.69249500      11.74678900       0.03527371      -0.00025734       0.04352428
Se       4.62071900       1.69249200       8.25294100       0.03778501      -0.00000352      -0.04388745
6
Lattice="4.93596 0.0 0.0 0.0 3.412319 0.0 0.0 0.0 19.83351" Properties=species:S:1:pos:R:3:forces:R:3 energy=-26.867739999999912 stress="-0.07058713583017952 -2.754473029608028e-07 4.590788382680047e-05 -2.754473029608028e-07 -0.020306158805805694 -1.4690522824576152e-06 4.590788382680047e-05 -1.4690522824576152e-06 -0.0009718699006133659" pbc="T T T" 
Mo       0.19044000       0.00005700       9.99912999      -0.01827183      -0.00054034       0.01176725
Mo       2.65842000       1.70621700       9.99912999      -0.01827180      -0.00054533       0.01176722
Se       1.92880200       0.00002300      11.76858401       0.01686420       0.00028678       0.03925427
Se       1.92836500       0.00003800       8.23057999       0.02211882       0.00018347      -0.05222667
Se       4.39678200       1.70618200      11.76858401       0.01686402       0.00028853       0.03925458
Se       4.39634500       1.70619700       8.23057999       0.02211861       0.00018522      -0.05222698
6
Lattice="4.636891 0.0 0.0 0.0 3.465911 0.0 0.0 0.0 19.833508" Properties=species:S:1:pos:R:3:forces:R:3 energy=-25.287499000000025 stress="-0.0993864367754786 -3.672630706144038e-07 -7.437077179941676e-06 -3.672630706144038e-07 -0.04163587978941373 -8.81431369474569e-06 -7.437077179941676e-06 -8.81431369474569e-06 -0.0011705592218157583" pbc="T T T" 
Mo       0.13052000      -0.00009300       9.99984200      -0.02690143       0.00125395      -0.00090824
Mo       2.44896400       1.73286300       9.99984200      -0.02688793       0.00123539      -0.00090832
Se       1.82945700      -0.00009300      11.78810300       0.00308530      -0.00032175       0.04875928
Se       1.82958300      -0.00006700       8.21165500       0.00292419      -0.00039430      -0.04830322
Se       4.14790300       1.73286300      11.78810099       0.00306995      -0.00033095       0.04878028
Se       4.14802900       1.73288900       8.21165700       0.00290910      -0.00040053      -0.04834422
6
Lattice="4.379655 0.0 0.0 0.0 3.60152 0.0 0.0 0.0 19.833517" Properties=species:S:1:pos:R:3:forces:R:3 energy=-24.143634999999904 stress="-0.09662131311682276 9.640655603628099e-06 2.4882073034125853e-05 9.640655603628099e-06 -0.06924579928052807 1.3129654774464934e-05 2.4882073034125853e-05 1.3129654774464934e-05 -0.000861874610964352" pbc="T T T" 
Mo       0.04420500       0.00005000      10.00018500      -0.05310339      -0.00163422       0.00404159
Mo       2.23403000       1.80081000      10.00018500      -0.05295082      -0.00165425       0.00405301
Se       1.76714300      -0.00001100      11.78413500       0.02024852       0.00052348       0.03182368
Se       1.76653800      -0.00006100       8.21637601       0.02103332       0.00142257      -0.03505319
Se       3.95697300       1.80075000      11.78413900       0.02017982       0.00043894       0.03164175
Se       3.95636800       1.80069900       8.21637099       0.02096922       0.00143540      -0.03496333
6
Lattice="4.17826 0.0 0.0 0.0 3.810217 0.0 0.0 0.0 19.83188" Properties=species:S:1:pos:R:3:forces:R:3 energy=-24.29092700000001 stress="-0.054871857222821535 2.754473029608028e-06 -8.538866391784887e-06 2.754473029608028e-06 -0.1006596460255311 1.6526838177648169e-06 -8.538866391784887e-06 1.6526838177648169e-06 -0.0016454303721201826" pbc="T T T" 
Mo      -0.26874400      -0.00005800      10.00030101       0.00292473       0.00012974      -0.00091578
Mo       1.82038600       1.90505000      10.00030101       0.00292476       0.00014169      -0.00091575
Se       1.81961100      -0.00002100      11.72326999       0.00032262      -0.00012696       0.07095482
Se       1.81978900      -0.00005200       8.27700000      -0.00005947      -0.00013848      -0.07401335
Se       3.90874100       1.90508700      11.72326999       0.00032260      -0.00012215       0.07095024
Se       3.90891900       1.90505600       8.27700000      -0.00005947      -0.00013367      -0.07400870
6
Lattice="4.147825 0.0 0.0 0.0 4.089305 0.0 0.0 0.0 19.831315" Properties=species:S:1:pos:R:3:forces:R:3 energy=-25.915039999999863 stress="-0.04338983639890046 3.672630706144038e-07 2.5157520337086657e-05 3.672630706144038e-07 -0.051027255583862306 -4.498972615026447e-06 2.5157520337086657e-05 -4.498972615026447e-06 -0.00041344640174416505" pbc="T T T" 
Mo      -0.27348300      -0.00004300       9.99989299       0.00632849      -0.00003983      -0.00357016
Mo       1.80042900       2.04461000       9.99989299       0.00633330      -0.00004715      -0.00357008
Se       1.80066500      -0.00005600      11.65729199       0.00054803       0.00048054       0.02712974
Se       1.80044900      -0.00003600       8.34223300       0.00356597      -0.00015190      -0.02121389
Se       3.87457800       2.04459700      11.65729199       0.00054572       0.00047365       0.02712985
Se       3.87436200       2.04461600       8.34223300       0.00356370      -0.00014560      -0.02121394
6
Lattice="4.178028 0.0 0.0 0.0 4.178028 0.0 0.0 0.0 19.864951" Properties=species:S:1:pos:R:3:forces:R:3 energy=-26.319434999999885 stress="-0.033982392845112515 1.3864180915693742e-05 -1.560868050111216e-05 1.3864180915693742e-05 -0.033982392845112515 -1.560868050111216e-05 -1.560868050111216e-05 -1.560868050111216e-05 -0.0004920406988556474" pbc="T T T" 
Mo      -0.00007600      -0.00007600       9.99935900       0.00020862       0.00020862       0.00375859
Mo       2.08888400       2.08888400       9.99935600       0.00036325       0.00036325       0.00392253
Se       2.08886200      -0.00004700      11.63774100       0.00262484      -0.00013010       0.02692845
Se       2.08911300      -0.00004700       8.36240599      -0.00185027       0.00058256      -0.02794604
Se       4.17798100       2.08886200      11.63774100      -0.00013010       0.00262484       0.02692845
Se       4.17798100       2.08911300       8.36240599       0.00058256      -0.00185027      -0.02794604
