88
Lattice="16.71105 0.0 0.0 0.0 17.366633 0.0 0.0 0.0 30.0" Properties=species:S:1:pos:R:3:forces:R:3 energy=-415.5228819999993 stress="0.000999 -0.0 0.0 -0.0 0.001 3e-06 0.0 3e-06 -0.000486" pbc="T T T" 
Mo      -0.00000200       1.92962700       3.24785400       0.00006700       0.00170400       0.01939600
Se       1.67110700       0.96481200       1.55407500       0.00904600      -0.00276300      -0.05047800
Se       1.67110700       0.96481200       4.94331000       0.01088100      -0.00419300       0.03191000
Mo       3.34220800       1.92962700       3.24785400       0.02527200      -0.00385600       0.02272200
Se       5.01331700       0.96481200       1.55407500       0.00880900      -0.01177400      -0.07347100
Se       5.01331700       0.96481200       4.94331000       0.00874200      -0.01136900       0.05349700
Mo       6.68441800       1.92962700       3.24785400      -0.16404500      -0.23444500       0.02056300
Se       8.35552700       0.96481200       1.55407500      -0.00002800       0.00058600      -0.04259100
Se       8.35552700       0.96481200       4.94331000      -0.00002800      -0.00147700       0.01930800
Mo      10.02662800       1.92962700       3.24785400       0.16422600      -0.23441100       0.02056300
Se      11.69773700       0.96481200       1.55407500      -0.00887200      -0.01176700      -0.07343700
Se      11.69773700       0.96481200       4.94331000      -0.00880600      -0.01136000       0.05346200
Mo      13.36883800       1.92962700       3.24785400      -0.02514100      -0.00382800       0.02271900
Se      15.03994700       0.96481200       1.55407500      -0.00912000      -0.00276100      -0.05045900
Se      15.03994700       0.96481200       4.94331000      -0.01095600      -0.00418900       0.03189200
Se       0.00000200       3.85925100       1.55407500      -0.00004500      -0.00208300      -0.05058100
Se       0.00000200       3.85925100       4.94331000      -0.00004400      -0.00133700       0.02888900
Mo       1.67110300       4.82406600       3.24785400       0.01898400       0.01009600       0.01881100
Se       3.34221200       3.85925100       1.55407500      -0.01546100      -0.01522000      -0.04283300
Se       3.34221200       3.85925100       4.94331000      -0.01642200      -0.01477000       0.02367200
Mo       5.01331300       4.82406600       3.24785400       0.38923000       0.23496900       0.02304000
Se       6.68442200       3.85925100       1.55407500       0.35824000       0.37892800      -0.02026200
Se       6.68442200       3.85925100       4.94331000       0.35544200       0.37696800       0.00101200
Mo       8.35552300       4.82406600       3.24785400       0.00017700       1.27928200       0.01657700
Se      10.02663200       3.85925100       1.55407500      -0.35826600       0.37895200      -0.02016400
Se      10.02663200       3.85925100       4.94331000      -0.35547200       0.37699000       0.00091400
Mo      11.69773300       4.82406600       3.24785400      -0.38912600       0.23510500       0.02304000
Se      13.36884200       3.85925100       1.55407500       0.01537500      -0.01519600      -0.04273500
Se      13.36884200       3.85925100       4.94331000       0.01633900      -0.01474700       0.02357500
Mo      15.03994300       4.82406600       3.24785400      -0.01887000       0.01010500       0.01881600
Mo      -0.00000200       7.71850400       3.24785400       0.00002600      -0.06273500       0.01975300
Se       1.67110700       6.75368900       1.55407500       0.00482100       0.02199200      -0.07677200
Se       1.67110700       6.75368900       4.94331000       0.00575200       0.02275600       0.05673900
Mo       3.34220800       7.71850400       3.24785400      -0.25699400      -0.00711900       0.02118100
Se       5.01331700       6.75368900       1.55407500       0.50877500       0.12816800      -0.03311200
Se       5.01331700       6.75368900       4.94331000       0.51208500       0.12661300       0.01252300
Mo       6.68441800       7.71850400       3.24785400       1.08007000      -0.64070500       0.01310500
Mo      10.02662800       7.71850400       3.24785400      -1.07960100      -0.64063900       0.01310500
Se      11.69773700       6.75368900       1.55407500      -0.50890400       0.12824800      -0.03271600
Se      11.69773700       6.75368900       4.94331000      -0.51221400       0.12669300       0.01212700
Mo      13.36883800       7.71850400       3.24785400       0.25710500      -0.00715300       0.02126200
Se      15.03994700       6.75368900       1.55407500      -0.00493400       0.02200400      -0.07666300
Se      15.03994700       6.75368900       4.94331000      -0.00606300       0.02275400       0.05679500
Se       0.00000200       9.64812800       1.55407500      -0.00005300       0.00440400      -0.06186300
Se       0.00000200       9.64812800       4.94331000      -0.00005200       0.00253200       0.03843400
Mo       1.67110300      10.61294300       3.24785400       0.03140900      -0.00803300       0.02067700
Se       3.34221200       9.64812800       1.55407500      -0.00037900       0.00095200      -0.03634500
Se       3.34221200       9.64812800       4.94331000      -0.00051300       0.00140000       0.01667200
Mo       5.01331300      10.61294300       3.24785400      -0.14182700       0.24335200       0.02235000
Se       6.68442200       9.64812800       1.55407500       0.13892400      -0.50938100      -0.02065400
Se       6.68442200       9.64812800       4.94331000       0.13782200      -0.51035600       0.00251700
Mo       8.35552300      10.61294300       3.24785400       0.00017100      -0.47594900       0.01957300
Se      10.02663200       9.64812800       1.55407500      -0.13890800      -0.50949500      -0.02035400
Se      10.02663200       9.64812800       4.94331000      -0.13780300      -0.51043800       0.00221300
Mo      11.69773300      10.61294300       3.24785400       0.14195300       0.24324000       0.02235100
Se      13.36884200       9.64812800       1.55407500       0.00027400       0.00092700      -0.03613500
Se      13.36884200       9.64812800       4.94331000       0.00041000       0.00136200       0.01646700
Mo      15.03994300      10.61294300       3.24785400      -0.03133300      -0.00806400       0.02067700
Mo      -0.00000200      13.50738200       3.24785400       0.00006300       0.01108800       0.02640700
Se       1.67110700      12.54256700       1.55407500       0.00837300      -0.00820500      -0.05076100
Se       1.67110700      12.54256700       4.94331000       0.01006600      -0.01024900       0.03032800
Mo       3.34220800      13.50738200       3.24785400       0.03378500       0.01620300       0.02279900
Se       5.01331700      12.54256700       1.55407500      -0.02691200      -0.00265600      -0.06320500
Se       5.01331700      12.54256700       4.94331000      -0.02587400      -0.00229000       0.04410000
Mo       6.68441800      13.50738200       3.24785400      -0.02923800      -0.01496200       0.01881500
Se       8.35552700      12.54256700       1.55407500       0.00016200       0.02675500      -0.05016400
Se       8.35552700      12.54256700       4.94331000      -0.00001900       0.02788700       0.02845600
Mo      10.02662800      13.50738200       3.24785400       0.02943200      -0.01499600       0.01881500
Se      11.69773700      12.54256700       1.55407500       0.02684700      -0.00269000      -0.06310000
Se      11.69773700      12.54256700       4.94331000       0.02581100      -0.00232200       0.04399400
Mo      13.36883800      13.50738200       3.24785400      -0.03364700       0.01616600       0.02279900
Se      15.03994700      12.54256700       1.55407500      -0.00845700      -0.00821600      -0.05071500
Se      15.03994700      12.54256700       4.94331000      -0.01015600      -0.01025800       0.03028300
Se       0.00000200      15.43700600       1.55407500      -0.00004100       0.00494500      -0.05638200
Se       0.00000200      15.43700600       4.94331000      -0.00004100       0.00810900       0.03543700
Mo       1.67110300      16.40182100       3.24785400       0.03032600      -0.00008200       0.02206100
Se       3.34221200      15.43700600       1.55407500       0.00845600      -0.00134300      -0.06524100
Se       3.34221200      15.43700600       4.94331000       0.00561000      -0.00222000       0.04448100
Mo       5.01331300      16.40182100       3.24785400      -0.04021300       0.01957700       0.02143500
Se       6.68442200      15.43700600       1.55407500      -0.01113600       0.00559100      -0.05616900
Se       6.68442200      15.43700600       4.94331000      -0.01211400       0.00639700       0.03636100
Mo       8.35552300      16.40182100       3.24785400       0.00008600       0.00150500       0.01973300
Se      10.02663200      15.43700600       1.55407500       0.01107400       0.00558600      -0.05614900
Se      10.02663200      15.43700600       4.94331000       0.01185300       0.00640600       0.03617700
Mo      11.69773300      16.40182100       3.24785400       0.04046900       0.01961100       0.02135300
Se      13.36884200      15.43700600       1.55407500      -0.00852600      -0.00134900      -0.06521400
Se      13.36884200      15.43700600       4.94331000      -0.00568000      -0.00222500       0.04445400
Mo      15.03994300      16.40182100       3.24785400      -0.03018000      -0.00008300       0.02206100
88
Lattice="16.71105 0.0 0.0 0.0 17.366633 0.0 0.0 0.0 30.0" Properties=species:S:1:pos:R:3:forces:R:3 energy=-415.06088199999976 stress="0.000851 1.8e-05 0.000196 1.8e-05 0.000917 -0.000228 0.000196 -0.000228 -0.00063" pbc="T T T" 
Mo       0.01824458       1.89897097       3.25494428      -0.64134800       0.34173800      -0.39346500
Se       1.66589605       0.97536787       1.55342975       0.21756200      -0.07269000      -0.05880400
Se       1.68067567       0.95574798       4.92894342      -0.01402900      -0.04392400       0.37870700
Mo       3.33895426       1.94480533       3.26882411       0.16445900      -0.10648400      -0.49825500
Se       4.99966714       0.98473015       1.53065211       0.07421300      -0.11481600       0.50637900
Se       4.99534973       0.98474000       4.99487338       0.24756900      -0.04513500      -0.46134900
Mo       6.68844735       1.94921922       3.25079094      -0.40332400      -0.82085000       0.07601000
Se       8.33942731       0.94900015       1.53121417       0.16126400       0.30168800       0.27841600
Se       8.36960341       0.95600000       4.92307504      -0.09362300       0.16647100       0.21828100
Mo      10.04077472       1.94246877       3.25712452      -0.07265400      -0.57790600      -0.43983300
Se      11.70475145       0.98075424       1.55690536      -0.09701900      -0.05955900      -0.05600100
Se      11.71665906       0.95658931       4.96227408      -0.11873800       0.10067200      -0.10439800
Mo      13.36649532       1.93652090       3.24772639       0.13869200       0.17019600      -0.08697300
Se      15.00757734       0.94067842       1.53114571       0.29443100       0.25134000       0.28749600
Se      15.03398797       0.95875143       4.94983599       0.00601200       0.04542700      -0.05869700
Se      -0.01020500       3.86037621       1.54725158       0.22032300      -0.17152800       0.21257800
Se       0.00082192       3.84876529       4.93101755      -0.05281200      -0.02368000       0.07899400
Mo       1.69024512       4.82088793       3.26649301      -0.56323200       0.28329800      -0.29403000
Se       3.33016810       3.88012872       1.54815642       0.14006800      -0.18258300       0.05042100
Se       3.32353642       3.86980079       4.94380405       0.36250200       0.02239400       0.18631100
Mo       5.02340562       4.83739186       3.23364317       0.09738200      -0.11456000       0.23082400
Se       6.69794862       3.85395246       1.58526260       0.27127600       0.52752100      -0.51709700
Se       6.69307081       3.85159858       4.94158988       0.24528300       0.57577500       0.12262200
Mo       8.32189876       4.85527258       3.25004063       0.62311300       1.01643800       0.27442400
Se      10.01062155       3.87773847       1.54141770      -0.40935400       0.31241900       0.22823400
Se      10.03854732       3.82272097       4.95829057      -0.53284500       0.82447300      -0.17697200
Mo      11.68527073       4.81820224       3.24496053      -0.28902600       0.32246200       0.05074100
Se      13.37845531       3.89012164       1.52175062      -0.20874500      -0.34418900       0.24038300
Se      13.37761883       3.88926719       4.93035540      -0.10118200      -0.27252500       0.13541500
Mo      15.02925116       4.81833580       3.23429876       0.36245100       0.07141300       0.16613800
Mo       0.02502747       7.74828191       3.25657878      -0.38446000      -0.90322800      -0.53917700
Se       1.69715520       6.74738979       1.57592597      -0.24187300       0.01265000      -0.26861700
Se       1.67369205       6.77397265       4.95948484       0.15196600      -0.15815900      -0.03364700
Mo       3.35060942       7.71148954       3.23967415      -0.18068100      -0.02401800       0.30457000
Se       5.01184223       6.76453586       1.54671853       0.61562200       0.07807300      -0.14155000
Se       5.02163009       6.72183361       4.93447476       0.46793500       0.42431000       0.13986300
Mo       6.67987405       7.72123490       3.24754001       1.12214600      -0.74525400       0.04698900
Mo      10.03111233       7.71271477       3.25640751      -1.23582200      -0.61589500      -0.04307100
Se      11.68979733       6.74671843       1.56558872      -0.59672000       0.09693500      -0.21559300
Se      11.70088324       6.75377900       4.95163707      -0.63775200      -0.04123600       0.08062200
Mo      13.34380321       7.69061459       3.25130381       0.84974800       0.42206200      -0.10256700
Se      15.02446946       6.72919940       1.55428421       0.21739000       0.40016300       0.02515200
Se      15.06244719       6.75807298       4.93316464      -0.15962800      -0.05296900       0.02096700
Se       0.01246222       9.65736039       1.56408262      -0.20222800      -0.13406500      -0.47380600
Se       0.02107545       9.60161637       4.93576892      -0.01061200       0.52309500       0.56630500
Mo       1.65357667      10.58799016       3.23265539       0.44786400       0.31503800       0.52729100
Se       3.33819883       9.63965545       1.55247409       0.09205800       0.02001000      -0.12924500
Se       3.33985423       9.64199196       4.91074745       0.02974100       0.00058300       0.34987200
Mo       5.02013961      10.58999464       3.25179476      -0.23446200       1.00010400      -0.07781200
Se       6.68091189       9.64749228       1.55709490       0.21291300      -0.49934100      -0.10102100
Se       6.68775115       9.64067103       4.95844862       0.13194100      -0.51786200      -0.06674900
Mo       8.34539101      10.61703374       3.24986193       0.09762900      -0.51189000      -0.31327000
Se      10.03249433       9.63580031       1.55421076      -0.31907500      -0.47789000      -0.00104200
Se      10.01739155       9.64524834       4.93182886      -0.13569500      -0.47865100       0.19522600
Mo      11.68760518      10.59688217       3.24526483       0.36617600       0.43662300       0.06156400
Se      13.36861816       9.64066757       1.54142229       0.21567800      -0.00302600       0.40659300
Se      13.37486142       9.64082016       4.93193215       0.00876400      -0.01129000       0.00894300
Mo      15.08913589      10.62859395       3.27378581      -0.71948100      -0.77486600      -0.58269600
Mo       0.03674374      13.52821979       3.25023307      -0.96506800      -0.17139400       0.04477900
Se       1.65404289      12.51946587       1.59024724       0.44284700       0.27005800      -0.39813700
Se       1.64064925      12.53955416       4.94380156       0.46663100      -0.11593300       0.07873400
Mo       3.36577863      13.51817774       3.26896178      -0.49403000      -0.38601500      -0.23760600
Se       5.00091974      12.55277451       1.53903390      -0.00141800      -0.23562500       0.18383600
Se       5.04753075      12.57729161       4.94958839      -0.41653800      -0.54623400       0.17873700
Mo       6.65262745      13.50419293       3.25178242       0.78705300       0.26039500      -0.38603600
Se       8.37721062      12.56443707       1.51869280      -0.25928900      -0.06198200       0.49879500
Se       8.33824106      12.53805823       4.94033084       0.09733500       0.15587700      -0.03696100
Mo      10.03647793      13.50898913       3.25579812      -0.18912300      -0.11663300      -0.43573600
Se      11.70177056      12.50930386       1.55131957      -0.08040600       0.18618500      -0.11310300
Se      11.69857480      12.54506315       4.93907973       0.04811000      -0.18877500       0.09883600
Mo      13.36539356      13.48539051       3.23076670       0.13284400       0.16618200       0.32225000
Se      15.05414080      12.53915470       1.57014683       0.16054400       0.07946300      -0.16243900
Se      15.04213287      12.50632905       4.94349118       0.14358800       0.61414200       0.10630000
Se       0.01529237      15.45524221       1.54202111      -0.16334400      -0.09697000       0.02006300
Se      -0.00475541      15.45245077       4.92130851       0.02270500      -0.01583800       0.30578600
Mo       1.67443286      16.40240169       3.23912766       0.10791300       0.17077200      -0.01636700
Se       3.32122884      15.42716882       1.54721731       0.34448300       0.10876900       0.13074400
Se       3.34902511      15.45125386       4.93486770      -0.09726200      -0.03524000       0.27650200
Mo       5.02363280      16.40473426       3.26954480      -0.63453900       0.55411600      -0.27443500
Se       6.63246901      15.44579970       1.56976846       0.35680200      -0.09085400      -0.15989300
Se       6.66346132      15.44024663       4.97159721       0.23966500      -0.03154000      -0.16352500
Mo       8.33716994      16.41305603       3.24484436      -0.10844000      -0.37520700       0.07877500
Se      10.01506146      15.46669883       1.56860633       0.03227900      -0.24619800      -0.21321000
Se      10.03958407      15.43020088       4.91485355      -0.27080300       0.12994500       0.40668900
Mo      11.68690476      16.40770033       3.25032727       0.40276600       0.17034200      -0.21612800
Se      13.39637386      15.44450391       1.56943397      -0.45936300      -0.20149700      -0.31403900
Se      13.35938248      15.43213066       4.92296903      -0.00665900      -0.16611500       0.21306300
Mo      15.02000315      16.40181817       3.24731016       0.49343700       0.05760800      -0.02248500
88
Lattice="16.71105 0.0 0.0 0.0 17.366633 0.0 0.0 0.0 30.0" Properties=species:S:1:pos:R:3:forces:R:3 energy=-414.0997819999993 stress="0.000792 2.4e-05 0.000371 2.4e-05 0.000838 -0.000477 0.000371 -0.000477 -0.000794" pbc="T T T" 
Mo       0.03062160       1.87083100       3.25839452      -1.12285000       0.63805500      -0.62902300
Se       1.66315666       0.98537359       1.55202441       0.38039200      -0.12989600      -0.07914600
Se       1.69036184       0.94588347       4.91871125      -0.05452300      -0.05023900       0.61213200
Mo       3.33721978       1.95938758       3.28548473       0.26206000      -0.18576400      -0.85664100
Se       4.98653185       1.00389901       1.51260418       0.13493000      -0.17564300       0.90519400
Se       4.97986992       1.00472975       5.04236353       0.41112500      -0.06890200      -0.85803900
Mo       6.68863220       1.96122386       3.25457518      -0.47053200      -1.15055300       0.11319500
Se       8.32479216       0.93634497       1.51105247       0.27132600       0.50386600       0.52059800
Se       8.38297213       0.94894765       4.90483513      -0.18751300       0.29080600       0.37576700
Mo      10.05462963       1.94997241       3.26231639      -0.32648900      -0.73129700      -0.74395300
Se      11.71080433       0.99643408       1.55907666      -0.15669900      -0.11200400      -0.09222800
Se      11.73472882       0.94936432       4.98055204      -0.19934700       0.21287900      -0.26470800
Mo      13.36545714       1.94525106       3.24676104       0.24756700       0.24919800      -0.14149300
Se      14.97771666       0.91883202       1.51090895       0.50931500       0.45250900       0.51570600
Se      15.02791251       0.95309138       4.95583454       0.01687300       0.09705300      -0.14150400
Se      -0.01803556       3.85945494       1.54277461       0.38999900      -0.29766000       0.38100900
Se       0.00102065       3.83765566       4.91928870      -0.09875200      -0.03508900       0.12448400
Mo       1.70438117       4.82043151       3.28277319      -1.00466900       0.47595900      -0.53416700
Se       3.31945289       3.89943356       1.54269152       0.26879600      -0.30939800       0.15380000
Se       3.30876715       3.88094052       4.94661248       0.68062600       0.04306100       0.31569400
Mo       5.03484691       4.85000536       3.22126432      -0.16216000      -0.41870100       0.35760700
Se       6.71526740       3.85499494       1.61107315       0.15989500       0.59865200      -0.91147400
Se       6.70503243       3.85078025       4.94128946       0.12783200       0.68631100       0.19553200
Mo       8.29355525       4.89783475       3.25502293       1.17142100       0.76199000       0.44149200
Se       9.98906446       3.90063008       1.53120915      -0.41658000       0.20756400       0.46033700
Se      10.04428757       3.79516813       4.97162708      -0.62590000       1.15147200      -0.29336100
Mo      11.66944841       4.81541330       3.24248378      -0.15484900       0.36061400       0.08069200
Se      13.38578125       3.91780106       1.49130270      -0.41421500      -0.57975100       0.47058600
Se      13.38536110       3.91689424       4.91866146      -0.24277500      -0.47969200       0.21851100
Mo      15.02181603       4.81315670       3.22199691       0.64286600       0.12678500       0.28422900
Mo       0.04690751       7.76990017       3.26017357      -0.71091900      -1.57014500      -0.96312700
Se       1.72103537       6.74099980       1.59509221      -0.46396600      -0.00454600      -0.48447500
Se       1.67819388       6.79293496       4.97576750       0.24646700      -0.32769400      -0.12018900
Mo       3.35750976       7.70402572       3.23428919      -0.00522300      -0.01640900       0.50880900
Se       5.01792821       6.77669126       1.53748051       0.66480500       0.01106000      -0.16598200
Se       5.03602047       6.69426301       4.92711791       0.41071500       0.70848400       0.27695900
Mo       6.68667569       7.71645174       3.24769038       1.14559000      -0.79838300       0.07181900
Mo      10.02311202       7.70042513       3.26480967      -1.35455800      -0.58224100      -0.08281200
Se      11.67423532       6.74077109       1.57481304      -0.61705000       0.08888600      -0.34418900
Se      11.69625603       6.75340568       4.96115162      -0.69391100      -0.16743000       0.08359400
Mo      13.32638072       7.66612121       3.25384739       1.13957700       0.75367600      -0.18417100
Se      15.01115822       6.70883660       1.55473557       0.39221000       0.69607900       0.03270100
Se      15.08371146       6.76192139       4.92299917      -0.29571000      -0.13922400       0.01011000
Se       0.02284596       9.66520629       1.56859889      -0.37107800      -0.28221900      -0.81772100
Se       0.04260964       9.56014456       4.93496792      -0.07097900       1.01412800       1.01636300
Mo       1.64001962      10.56540245       3.22230720       0.79045700       0.58020700       0.93558000
Se       3.33519237       9.63118066       1.54929250       0.17398300       0.04808900      -0.16051600
Se       3.33776312       9.63565496       4.88150418       0.06303900      -0.00091200       0.67461000
Mo       5.02486110      10.57623403       3.25506004      -0.23012100       1.41888600      -0.17365100
Se       6.67989319       9.64066823       1.55900629       0.24373000      -0.44750900      -0.13923700
Se       6.69278187       9.62659941       4.97318969       0.09621800      -0.47128800      -0.17837800
Mo       8.33590145      10.61606389       3.24885159       0.17651300      -0.48231200      -0.50959400
Se      10.03464292       9.61717063       1.55434721      -0.43480900      -0.41168400       0.03089400
Se      10.00618891       9.63634726       4.92233834      -0.11916400      -0.41572400       0.30771300
Mo      11.68078292      10.58464822       3.24322292       0.45880100       0.47599100       0.09959900
Se      13.37096640       9.63294231       1.53326882       0.33840700      -0.01610100       0.69135400
Se      13.38115696       9.63311817       4.92036005       0.01354200      -0.02763500       0.02586000
Mo      15.13257870      10.63699405       3.29470469      -1.26378000      -1.32827500      -1.02928100
Mo       0.06489004      13.54795561       3.25312335      -1.75210100      -0.33258000       0.03892600
Se       1.64182828      12.49893462       1.62266355       0.78495800       0.49862500      -0.71478400
Se       1.61496983      12.53507490       4.94529011       0.85387700      -0.17814100       0.14228800
Mo       3.38517058      13.52542573       3.28835159      -0.85816000      -0.67812200      -0.43310900
Se       4.98807464      12.56045496       1.52567781       0.02761700      -0.39493100       0.36599700
Se       5.07767664      12.60646101       4.95831529      -0.76486900      -0.96449800       0.32366900
Mo       6.62768930      13.50351702       3.25199969       1.36979700       0.47862400      -0.67454200
Se       8.39640355      12.58622447       1.48817922      -0.46724800      -0.17510400       0.87494900
Se       8.32164723      12.53529174       4.93673346       0.21745500       0.23167500      -0.12993200
Mo      10.04475510      13.50945765       3.25963354      -0.36135300      -0.21228500      -0.77744900
Se      11.70495454      12.47730873       1.54711806      -0.14748500       0.38074700      -0.14668300
Se      11.70001187      12.54535546       4.93591249       0.05119800      -0.32035600       0.13337600
Mo      13.36315889      13.46438202       3.21636979       0.24122200       0.29254700       0.54445500
Se      15.07070729      12.53660327       1.58471992       0.26957900       0.13446300      -0.26231500
Se      15.04610763      12.47643296       4.94504857       0.22893400       1.12117400       0.21827000
Se       0.02905574      15.47284119       1.52980943      -0.30669400      -0.19692600       0.08881300
Se      -0.00931399      15.46820599       4.90238468       0.07020700      -0.01522000       0.53897600
Mo       1.67894414      16.40468226       3.22999461       0.14875600       0.27673200      -0.01392700
Se       3.30377397      15.41832811       1.54170503       0.58806200       0.17329000       0.27176200
Se       3.35481691      15.46548802       4.92956147      -0.20682300      -0.08733300       0.45948600
Mo       5.02794047      16.41324515       3.28922634      -1.03343200       0.90572100      -0.45043800
Se       6.58317257      15.45375889       1.58392890       0.65096500      -0.15777200      -0.28290400
Se       6.64472941      15.44321963       4.99878849       0.42334400      -0.04292700      -0.35010800
Mo       8.31723450      16.42087544       3.24253340      -0.10394100      -0.66257100       0.11414600
Se      10.00356118      15.49426120       1.58096493       0.05777000      -0.46618000      -0.35149100
Se      10.04960867      15.42478631       4.89050076      -0.51196100       0.24689100       0.71325800
Mo      11.67975637      16.41548568       3.25072258       0.64767400       0.29030500      -0.38551800
Se      13.41910766      15.44975676       1.58137799      -0.84749800      -0.39814600      -0.55825700
Se      13.34957389      15.42507154       4.90460158       0.01188200      -0.28159200       0.35374200
Mo      15.00443230      16.40241007       3.24656502       0.92562300       0.12097100      -0.02861000
88
Lattice="16.71105 0.0 0.0 0.0 17.366633 0.0 0.0 0.0 30.0" Properties=species:S:1:pos:R:3:forces:R:3 energy=-413.324881999999 stress="0.000878 3.5e-05 0.000531 3.5e-05 0.000913 -0.000678 0.000531 -0.000678 -0.000632" pbc="T T T" 
Mo       0.03282573       1.84540078       3.25564925      -1.30628300       0.85007800      -0.66596400
Se       1.66496885       0.99517208       1.54936438       0.47306000      -0.16311200      -0.10598000
Se       1.70074244       0.93398277       4.91490427      -0.12966500       0.03760300       0.66937200
Mo       3.33799566       1.97415588       3.29548583       0.27186800      -0.21681500      -0.96245400
Se       4.97321875       1.02360779       1.50366131       0.18585000      -0.22716200       1.10141700
Se       4.96745903       1.02674707       5.08559139       0.48372400      -0.09279600      -1.15577900
Mo       6.68380500       1.96277038       3.26012332      -0.39478500      -1.09666100       0.11259100
Se       8.31150448       0.92835494       1.49473401       0.31592900       0.58333900       0.69919200
Se       8.39584229       0.94462832       4.88880640      -0.29041300       0.34132700       0.49316600
Mo      10.06699463       1.95075058       3.26034818      -0.58543700      -0.67459600      -0.81964400
Se      11.71572304       1.01297870       1.56030630      -0.16079600      -0.15031700      -0.17576200
Se      11.75288058       0.94388947       4.99803120      -0.25751800       0.31667400      -0.44880200
Mo      13.36688049       1.95791008       3.24417607       0.25736800       0.23238700      -0.13115500