8
Lattice="5.651557 0.0 0.0 0.0 5.651557 0.0 0.0 0.0 5.651557" Properties=species:S:1:pos:R:3:forces:R:3 energy=-28.284370999999737 stress="-0.0016912464401793294 -0.0 -0.0 -0.0 -0.0016912464401793294 -0.0 -0.0 -0.0 -0.0016912464401793294" pbc="T T T" 
Se       0.00000000       0.00000000       0.00000000       0.00000213       0.00000213       0.00000213
Se       0.00000000       0.00000000       2.82577800       0.00000216       0.00000216      -0.00000108
Se       0.00000000       2.82577800       0.00000000       0.00000216      -0.00000108       0.00000216
Se       0.00000000       2.82577800       2.82577800       0.00000211      -0.00000113      -0.00000116
Se       2.82577800       0.00000000       0.00000000      -0.00000108       0.00000216       0.00000216
Se       2.82577800       0.00000000       2.82577800      -0.00000113       0.00000211      -0.00000116
Se       2.82577800       2.82577800       0.00000000      -0.00000113      -0.00000113       0.00000213
Se       2.82577800       2.82577800       2.82577800      -0.00000113      -0.00000113      -0.00000113
8
Lattice="5.651557 0.0 0.0 0.0 5.651557 0.0 0.0 0.0 5.651557" Properties=species:S:1:pos:R:3:forces:R:3 energy=-28.284370999999737 stress="-0.0016912464401793294 -0.0 -0.0 -0.0 -0.0016912464401793294 -0.0 -0.0 -0.0 -0.0016912464401793294" pbc="T T T" 
Se       0.00000000       0.00000000       0.00000000       0.00000213       0.00000213       0.00000213
Se       0.00000000       0.00000000       2.82577800       0.00000216       0.00000216      -0.00000108
Se       0.00000000       2.82577800       0.00000000       0.00000216      -0.00000108       0.00000216
Se       0.00000000       2.82577800       2.82577800       0.00000211      -0.00000113      -0.00000116
Se       2.82577800       0.00000000       0.00000000      -0.00000108       0.00000216       0.00000216
Se       2.82577800       0.00000000       2.82577800      -0.00000113       0.00000211      -0.00000116
Se       2.82577800       2.82577800       0.00000000      -0.00000113      -0.00000113       0.00000213
Se       2.82577800       2.82577800       2.82577800      -0.00000113      -0.00000113      -0.00000113
8
Lattice="9.65156 0.0 0.0 0.0 5.651557 0.0 0.0 0.0 5.651557" Properties=species:S:1:pos:R:3:forces:R:3 energy=-26.127392999999756 stress="-0.0005104956681540213 -0.0 -0.0 -0.0 0.02573935685670753 -0.0 -0.0 -0.0 0.02573935685670753" pbc="T T T" 
Se       0.00000000       0.00000000       0.00000000       0.01396083      -0.00000059      -0.00000059
Se       0.00000000       0.00000000       2.82577800       0.01387445      -0.00000064       0.00000208
Se       0.00000000       2.82577800       0.00000000       0.01387447       0.00000208      -0.00000064
Se       0.00000000       2.82577800       2.82577800       0.01396107       0.00000208       0.00000208
Se       6.82577800       0.00000000       0.00000000      -0.01025320      -0.00000062      -0.00000062
Se       6.82577800       0.00000000       2.82577800      -0.01016671      -0.00000064       0.00000208
Se       6.82577800       2.82577800       0.00000000      -0.01016673       0.00000208      -0.00000064
Se       6.82577800       2.82577800       2.82577800      -0.01025346       0.00000211       0.00000211
