8
Lattice="6.253541 0.0 0.0 0.0 6.253541 0.0 0.0 0.0 6.253541" Properties=species:S:1:pos:R:3:forces:R:3 energy=-23.41599899999983 stress="-0.004747793345367704 9.181576765360095e-08 9.181576765360095e-08 9.181576765360095e-08 -0.004747793345367704 9.181576765360095e-08 9.181576765360095e-08 9.181576765360095e-08 -0.004747793345367704" pbc="T T T" 
Se       3.12677100       0.00000000       0.00000000       0.00000486       0.00000129       0.00000129
Se       0.00000000       3.12677100       0.00000000       0.00000129       0.00000486       0.00000129
Se       4.69015600       1.56338500       1.56338500      -0.00000134      -0.00000501      -0.00000504
Se       1.56338500       4.69015600       1.56338500      -0.00000501      -0.00000134      -0.00000504
Se       0.00000000       0.00000000       3.12677100       0.00000129       0.00000129       0.00000486
Se       3.12677100       3.12677100       3.12677100       0.00000481       0.00000481       0.00000481
Se       1.56338500       1.56338500       4.69015600      -0.00000501      -0.00000501      -0.00000134
Se       4.69015600       4.69015600       4.69015600      -0.00000131      -0.00000131      -0.00000131
8
Lattice="6.253541 0.0 0.0 0.0 6.253541 0.0 0.0 0.0 6.253541" Properties=species:S:1:pos:R:3:forces:R:3 energy=-23.41599899999983 stress="-0.004747793345367704 9.181576765360095e-08 9.181576765360095e-08 9.181576765360095e-08 -0.004747793345367704 9.181576765360095e-08 9.181576765360095e-08 9.181576765360095e-08 -0.004747793345367704" pbc="T T T" 
Se       3.12677100       0.00000000       0.00000000       0.00000486       0.00000129       0.00000129
Se       0.00000000       3.12677100       0.00000000       0.00000129       0.00000486       0.00000129
Se       4.69015600       1.56338500       1.56338500      -0.00000134      -0.00000501      -0.00000504
Se       1.56338500       4.69015600       1.56338500      -0.00000501      -0.00000134      -0.00000504
Se       0.00000000       0.00000000       3.12677100       0.00000129       0.00000129       0.00000486
Se       3.12677100       3.12677100       3.12677100       0.00000481       0.00000481       0.00000481
Se       1.56338500       1.56338500       4.69015600      -0.00000501      -0.00000501      -0.00000134
Se       4.69015600       4.69015600       4.69015600      -0.00000131      -0.00000131      -0.00000131
8
Lattice="10.25354 0.0 0.0 0.0 6.253541 0.0 0.0 0.0 6.253541" Properties=species:S:1:pos:R:3:forces:R:3 energy=-24.39046099999996 stress="4.296977926188524e-05 0.0 0.0 0.0 0.012895800014251212 0.004609610615049035 0.0 0.004609610615049035 0.012895800014251212" pbc="T T T" 
Se       7.37224700       0.00000000       0.00000000       0.00650921       0.00000064       0.00000064
Se       0.24075600       3.12677100       0.00000000       0.00751433       0.00000000       0.00000283
Se       8.44897300       1.56338500       1.56338500      -0.00930169      -0.00001244      -0.00001247
Se       1.31724800       4.69015600       1.56338500      -0.00801259      -0.00000203      -0.00000123
Se       0.24075600       0.00000000       3.12677100       0.00751431       0.00000293       0.00000008
Se       7.37224700       3.12677100       3.12677100       0.00649525      -0.00000141      -0.00000141
Se       1.31724800       1.56338500       4.69015600      -0.00801264      -0.00000116      -0.00000198
Se       8.44897300       4.69015600       4.69015600      -0.00929948       0.00001422       0.00001422
