40
Lattice="13.27803 0.0 0.0 0.0 9.391796 0.0 0.0 0.0 20.0" Properties=species:S:1:pos:R:3:forces:R:3 energy=-186.5273930000003 stress="-0.009948789319873584 1.4690522824576152e-05 0.0005161882457485445 1.4690522824576152e-05 -0.016916596111337705 0.0020087453647254813 0.0005161882457485445 0.0020087453647254813 -0.009315535970366698" pbc="T T T" 
Mo       0.00272400       4.45892400      10.20695100       0.14837830       0.35637909       0.23683091
Mo       1.68352700       2.34737600      10.46786700      -0.05611739      -0.21753054       0.21871304
Mo       0.03342000       9.05082500       9.89600100      -0.00079532      -0.69860185       0.16970167
Mo       1.67932600       6.46626600       9.52637600      -0.03684162       0.46959537      -0.46743873
Mo       3.32223600       4.45892300      10.20695700       0.15112874       0.33627852       0.22686796
Mo       5.00303400       2.34737600      10.46786900      -0.04674690      -0.22906137       0.21322536
Mo       3.35292901       9.05082500       9.89600100       0.04981762      -0.70157944       0.17375318
Mo       4.99882600       6.46625700       9.52638100      -0.03734044       0.45866147      -0.46236743
Mo       6.64173900       4.45892400      10.20695100       0.14837881       0.35637902       0.23683101
Mo       8.32254200       2.34737600      10.46786700      -0.05611610      -0.21753054       0.21871307
Mo       6.67243500       9.05082500       9.89600100      -0.00079797      -0.69860046       0.16970647
Mo       8.31834100       6.46626600       9.52637600      -0.03684054       0.46959537      -0.46743873
Mo       9.96125100       4.45892300      10.20695700       0.15112925       0.33627857       0.22686781
Mo      11.64204900       2.34737600      10.46786900      -0.04674695      -0.22905788       0.21322250
Mo       9.99194401       9.05082500       9.89600100       0.04981526      -0.70158067       0.17374887
Mo      11.63784100       6.46625700       9.52638100      -0.03734052       0.45866098      -0.46236782
Se       0.02115800       3.07597700      12.25220200       0.02088746      -0.19956583       0.42248085
Se       1.71357000       0.19216100      11.75816300      -0.19790315       0.03697931       0.47515630
Se       1.68525399       0.87569300       8.42484200       0.06157636       0.26094974      -0.47947681
Se       0.02024900       6.79638300      11.41760000       0.02079411      -0.03722474       0.52481979
Se       0.01905000       7.45655600       7.88016400      -0.00453409       0.26977202      -0.67297988
Se       1.66210601       4.19468300       8.35472400       0.00528994      -0.20319821      -0.42352009
Se       3.34066000       3.07598200      12.25220200       0.03201607      -0.19950569       0.41995479
Se       5.03307700       0.19215800      11.75816300      -0.18844390       0.03830180       0.48239530
Se       5.00476400       0.87568200       8.42484100       0.06437295       0.26205668      -0.47911539
Se       3.33975800       6.79638600      11.41760100       0.02677853      -0.03726516       0.52573505
Se       3.33856000       7.45655900       7.88016300       0.01530367       0.27238274      -0.67550100
Se       4.98161600       4.19462000       8.35475700      -0.01369876      -0.20180446      -0.41932847
Se       6.66017300       3.07597700      12.25220200       0.02088795      -0.19956549       0.42248211
Se       8.35258500       0.19216100      11.75816300      -0.19790253       0.03697933       0.47515620
Se       8.32426899       0.87569300       8.42484200       0.06157669       0.26094969      -0.47947676
Se       6.65926400       6.79638300      11.41760000       0.02079442      -0.03722454       0.52482087
Se       6.65806500       7.45655600       7.88016400      -0.00453365       0.26977215      -0.67298098
Se       8.30112101       4.19468300       8.35472400       0.00529051      -0.20319818      -0.42352004
Se       9.97967500       3.07598200      12.25220200       0.03201656      -0.19950602       0.41995343
Se      11.67209200       0.19215800      11.75816200      -0.18844460       0.03830193       0.48240352
Se      11.64377900       0.87568200       8.42484100       0.06437292       0.26205696      -0.47911470
Se       9.97877300       6.79638600      11.41760100       0.02677881      -0.03726534       0.52573381
Se       9.97757500       7.45655900       7.88016300       0.01530408       0.27238259      -0.67549976
Se      11.62063100       4.19462000       8.35475700      -0.01369876      -0.20180379      -0.41932623
40
Lattice="13.27803 0.0 0.0 0.0 9.691796 0.0 0.0 0.0 20.0" Properties=species:S:1:pos:R:3:forces:R:3 energy=-186.8008809999992 stress="-0.008372220773493602 0.0004715657826688944 -0.00039581777435467367 0.0004715657826688944 -0.005430535393639881 5.554853943042857e-05 -0.00039581777435467367 5.554853943042857e-05 -0.009453994147988328" pbc="T T T" 
Mo       0.00307100       4.61179400      10.21907800       0.07920299       0.16309190       0.75569505
Mo       1.66237300       2.40406000      10.41933800       0.17366968       0.13849647      -0.08021675
Mo       0.05784499       9.35211600       9.89502600      -0.18889392      -1.07951382       0.04604311
Mo       1.66365300       6.68203500       9.57719900       0.23263356       0.11299107      -0.69875058
Mo       3.32257900       4.61179300      10.21907800       0.08383589       0.15339359       0.74857880
Mo       4.98188300       2.40406100      10.41934000       0.08926591       0.14137281      -0.08226093
Mo       3.37735500       9.35211600       9.89502700      -0.25638819      -1.08121010       0.04628089
Mo       4.98316000       6.68203500       9.57719900       0.16839513       0.11576077      -0.69994520
Mo       6.64208600       4.61179400      10.21907800       0.07920415       0.16309195       0.75569489
Mo       8.30138800       2.40406000      10.41933800       0.17367034       0.13849647      -0.08021639
Mo       6.69685999       9.35211600       9.89502600      -0.18889236      -1.07951392       0.04604309
Mo       8.30266800       6.68203500       9.57719900       0.23263438       0.11299087      -0.69875076
Mo       9.96159400       4.61179300      10.21907800       0.08383556       0.15339372       0.74857834
Mo      11.62089800       2.40406100      10.41934000       0.08926477       0.14137284      -0.08226073
Mo      10.01637000       9.35211600       9.89502700      -0.25638881      -1.08121036       0.04628081
Mo      11.62217500       6.68203500       9.57719900       0.16839362       0.11576064      -0.69994532
Se       0.00461000       3.08193100      12.18978400      -0.04607499       0.14521029       0.41707593
Se       1.70156501       0.22262700      11.71767800       0.07615426       0.23088616       0.65587777
Se       1.72799500       0.86761900       8.42283700      -0.11620878       0.44963774      -0.61141064
Se       0.01571200       7.03587800      11.43821500      -0.06827280      -0.09620048       0.52192012
Se       0.01727200       7.68371600       7.93140800      -0.02616388       0.31086951      -0.58920060
Se       1.66628200       4.40774900       8.37435600      -0.04010127      -0.35887396      -0.40671847
Se       3.32411300       3.08189000      12.18975500      -0.04610022       0.14606551       0.42073895
Se       5.02108200       0.22263200      11.71768700       0.09859837       0.23084610       0.65739058
Se       5.04750200       0.86762400       8.42283800      -0.11778456       0.44650012      -0.61408839
Se       3.33522000       7.03587400      11.43821600      -0.05504748      -0.09839469       0.51825319
Se       3.33678000       7.68371700       7.93140900      -0.01407674       0.30971619      -0.59016916
Se       4.98579000       4.40775100       8.37435500      -0.03467619      -0.35892719      -0.40383827
Se       6.64362500       3.08193100      12.18978400      -0.04607445       0.14521031       0.41707523
Se       8.34058001       0.22262700      11.71767800       0.07615454       0.23088644       0.65587592
Se       8.36701000       0.86761900       8.42283700      -0.11620847       0.44963743      -0.61140874
Se       6.65472700       7.03587800      11.43821500      -0.06827197      -0.09620053       0.52191930
Se       6.65628700       7.68371600       7.93140800      -0.02616301       0.31086948      -0.58919978
Se       8.30529700       4.40774900       8.37435600      -0.04010096      -0.35887327      -0.40671608
Se       9.96312800       3.08189000      12.18975500      -0.04610040       0.14606554       0.42073679
Se      11.66009700       0.22263200      11.71768700       0.09859775       0.23084626       0.65738963
Se      11.68651700       0.86762400       8.42283800      -0.11778528       0.44649999      -0.61408747
Se       9.97423500       7.03587400      11.43821600      -0.05504773      -0.09839492       0.51825057
Se       9.97579500       7.68371700       7.93140900      -0.01407700       0.30971606      -0.59016662
Se      11.62480500       4.40775100       8.37435500      -0.03467678      -0.35892683      -0.40383701
40
Lattice="13.27803 0.0 0.0 0.0 9.991796 0.0 0.0 0.0 20.0" Properties=species:S:1:pos:R:3:forces:R:3 energy=-186.81926899999962 stress="-0.004419735607541388 -0.0003424728133479315 -1.9924021580831405e-05 -0.0003424728133479315 0.0039022619410456934 -0.0003410037610654739 -1.9924021580831405e-05 -0.0003410037610654739 -0.008135978803320886" pbc="T T T" 
Mo       0.08659000       4.75142600      10.29155400      -0.28909453       0.49060745       0.19321857
Mo       1.66058700       2.50181300      10.41584300       0.10039688       0.06068038      -0.19454624
Mo       0.01802200       9.60685900       9.84947700      -0.12584155      -0.27307025       0.27123454
Mo       1.66129601       6.86929700       9.57588000       0.21577427      -0.12377906      -0.88096743
Mo       3.40593700       4.75125000      10.29057700      -0.29631673       0.50134387       0.17999071
Mo       4.98018800       2.50180100      10.41582800       0.04105394       0.05630611      -0.19354425
Mo       3.33753600       9.60684100       9.84945500      -0.05049974      -0.27270889       0.26887761
Mo       4.98080300       6.86927200       9.57587100       0.13128918      -0.12683027      -0.87968766
Mo       6.72560500       4.75142600      10.29155400      -0.28914099       0.49059976       0.19325503
Mo       8.29960200       2.50181300      10.41584300       0.10040467       0.06067051      -0.19456889
Mo       6.65703700       9.60685900       9.84947700      -0.12590976      -0.27306532       0.27123742
Mo       8.30031101       6.86929700       9.57588000       0.21577139      -0.12376695      -0.88096332
Mo      10.04495200       4.75125000      10.29057700      -0.29624662       0.50133433       0.18002048
Mo      11.61920300       2.50180200      10.41582800       0.04113292       0.05628837      -0.19354286
Mo       9.97655100       9.60684100       9.84945500      -0.05041877      -0.27269642       0.26888005
Mo      11.61981701       6.86927200       9.57587100       0.13142922      -0.12683209      -0.87968733
Se       0.00053800       3.16601300      12.18976400       0.02689163      -0.12485273       0.59359991
Se       1.66884300       0.25677600      11.65501000       0.08825253       0.09654406       0.61360209
Se       1.67000500       0.92024000       8.42270800       0.02000709       0.11448450      -0.38884552
Se      -0.00190500       7.27603400      11.41442200      -0.00566255      -0.05337683       0.52052077
Se       0.00390000       7.93084100       7.92920800       0.04444003      -0.11335298      -0.47172077
Se       1.75199200       4.50473600       8.44271600      -0.02714458      -0.07877804      -0.25593799
Se       3.32011500       3.16737700      12.18770000       0.02578884      -0.13911222       0.61995619
Se       4.98825800       0.25675800      11.65496900       0.07968315       0.09853543       0.61790129
Se       4.98951300       0.92018300       8.42268700       0.00376785       0.11253809      -0.38890399
Se       3.31759100       7.27599300      11.41438600      -0.00497915      -0.05551969       0.51863348
Se       3.32361300       7.93105400       7.92900300       0.04757243      -0.11012748      -0.47340728
Se       5.07242201       4.50386100       8.44276300      -0.04183329      -0.07489765      -0.24970409
Se       6.63955300       3.16601300      12.18976400       0.02686656      -0.12485926       0.59371397
Se       8.30785800       0.25677600      11.65501000       0.08825672       0.09653128       0.61372862
Se       8.30902000       0.92024000       8.42270800       0.02001177       0.11451226      -0.38897035
Se       6.63711000       7.27603400      11.41442200      -0.00570302      -0.05335752       0.52066062
Se       6.64291500       7.93084100       7.92920800       0.04439812      -0.11334246      -0.47185640
Se       8.39100700       4.50473600       8.44271600      -0.02713764      -0.07883466      -0.25612015
Se       9.95913000       3.16737700      12.18770000       0.02581570      -0.13911698       0.62004795
Se      11.62727300       0.25675800      11.65496900       0.07972657       0.09854525       0.61788774
Se      11.62852800       0.92018300       8.42268700       0.00381778       0.11254128      -0.38888751
Se       9.95660600       7.27599300      11.41438600      -0.00493685      -0.05550454       0.51876224
Se       9.96262800       7.93105400       7.92900300       0.04761439      -0.11011532      -0.47352939
Se      11.71143701       4.50386100       8.44276300      -0.04178665      -0.07489606      -0.24968406
40
Lattice="13.27803 0.0 0.0 0.0 10.291796 0.0 0.0 0.0 20.0" Properties=species:S:1:pos:R:3:forces:R:3 energy=-185.75502199999937 stress="-0.002617392088501202 -0.0005341841362086503 0.0003029920332568831 -0.0005341841362086503 0.01222848301494484 -0.0028484005599176618 0.0003029920332568831 -0.0028484005599176618 -0.009324350284061443" pbc="T T T" 
Mo       0.03287900       4.84873800      10.32024700      -0.16045503       0.93079076       0.44591242
Mo       1.74933000       2.58369600      10.45233400      -0.25742694      -0.21425205      -0.26169415
Mo      -0.02247600       9.90260600       9.85355000       0.22465985      -0.34567541       0.31533349
Mo       1.69010900       7.08416600       9.47703900      -0.21274746      -0.60966345      -0.25152790
Mo       3.35238600       4.84873500      10.32024900      -0.12685405       0.92668795       0.44055393
Mo       5.06883700       2.58369600      10.45233000      -0.33855932      -0.21786977      -0.25989443
Mo       3.29703100       9.90260600       9.85355000       0.12335776      -0.34430421       0.31490283
Mo       5.00961500       7.08416300       9.47704000      -0.17761966      -0.60413902      -0.25193658
Mo       6.67189400       4.84873800      10.32024700      -0.16045508       0.93079076       0.44591247
Mo       8.38834500       2.58369600      10.45233400      -0.25742692      -0.21425205      -0.26169418
Mo       6.61653900       9.90260600       9.85355000       0.22465980      -0.34567541       0.31533351
Mo       8.32912400       7.08416600       9.47703900      -0.21274744      -0.60966345      -0.25152793
Mo       9.99140100       4.84873500      10.32024900      -0.12685397       0.92668795       0.44055396
Mo      11.70785200       2.58369600      10.45233000      -0.33855924      -0.21786977      -0.25989443
Mo       9.93604600       9.90260600       9.85355000       0.12335784      -0.34430421       0.31490285
Mo      11.64863000       7.08416300       9.47704000      -0.17761953      -0.60413902      -0.25193658
Se       0.09055601       3.22162900      12.21450900       0.01387966       0.09819869       0.55807943
Se       1.64487701       0.25309900      11.66373800       0.06037005       0.28850762       0.46158191
Se       1.64130300       0.98220300       8.49705700       0.03386490       0.00900992      -0.72011874
Se       0.01082499       7.43444200      11.31356200       0.13294522       0.17043281       0.69364671
Se       0.00735100       8.21343500       7.90183700       0.06718890       0.09959457      -0.55593903
Se       1.67563099       4.69492400       8.49104000       0.15645411      -0.44282650      -0.70509838
Se       3.41006700       3.22159700      12.21450900       0.02232777       0.09831452       0.56462312
Se       4.96438700       0.25309700      11.66373800       0.05405711       0.29551701       0.45734223
Se       4.96081100       0.98220200       8.49705600       0.02549953       0.01932531      -0.72245469
Se       3.33033200       7.43444200      11.31356200       0.14248206       0.16885706       0.69962273
Se       3.32685800       8.21343400       7.90183500       0.07508920       0.10036693      -0.55103008
Se       4.99513401       4.69492200       8.49104100       0.14136862      -0.44941642      -0.72338440
Se       6.72957101       3.22162900      12.21450900       0.01387964       0.09819869       0.55807955
Se       8.28389201       0.25309900      11.66373800       0.06037007       0.28850760       0.46158203
Se       8.28031800       0.98220300       8.49705700       0.03386493       0.00900994      -0.72011887
Se       6.64983999       7.43444200      11.31356200       0.13294517       0.17043284       0.69364689
Se       6.64636600       8.21343500       7.90183700       0.06718884       0.09959457      -0.55593919
Se       8.31464599       4.69492400       8.49104000       0.15645411      -0.44282656      -0.70509856
Se      10.04908200       3.22159700      12.21450900       0.02232780       0.09831452       0.56462319
Se      11.60340200       0.25309700      11.66373800       0.05405714       0.29551701       0.45734221
Se      11.59982600       0.98220200       8.49705600       0.02549959       0.01932531      -0.72245467
Se       9.96934700       7.43444200      11.31356200       0.14248211       0.16885708       0.69962283
Se       9.96587300       8.21343400       7.90183500       0.07508928       0.10036695      -0.55103018
Se      11.63414901       4.69492200       8.49104100       0.14136867      -0.44941642      -0.72338435
40
Lattice="13.27803 0.0 0.0 0.0 10.591796 0.0 0.0 0.0 20.0" Properties=species:S:1:pos:R:3:forces:R:3 energy=-184.54675399999905 stress="-0.00028591430047331335 3.452272863775395e-05 0.0004965396714706739 3.452272863775395e-05 0.017584280373714692 0.0002830680116760517 0.0004965396714706739 0.0002830680116760517 -0.007081291080283973" pbc="T T T" 
Mo       0.04819500       5.00735000      10.31670900      -0.14035484       0.71565914       0.37630260
Mo       1.66080400       2.71535400      10.41650700       0.14517894      -0.39945670      -0.35059804
Mo      -0.01486900      10.20137600       9.85019100       0.17762244      -0.28951989       0.47239509
Mo       1.73239200       7.19595700       9.50020100      -0.31851037       0.05532858      -0.32575494
Mo       3.36770500       5.00735200      10.31670900      -0.15322483       0.70993740       0.36745404
Mo       4.98030500       2.71535400      10.41649900       0.06037318      -0.39859386      -0.34935762
Mo       3.30463801      10.20137600       9.85019200       0.11302552      -0.29924018       0.47605838
Mo       5.05189901       7.19595800       9.50020100      -0.34249434       0.04832615      -0.32631611
Mo       6.68721000       5.00735000      10.31670900      -0.14034769       0.71565932       0.37630113
Mo       8.29981900       2.71535400      10.41650700       0.14518239      -0.39945556      -0.35059640
Mo       6.62414600      10.20137600       9.85019100       0.17763031      -0.28952015       0.47239491
Mo       8.37140700       7.19595700       9.50020100      -0.31850533       0.05532901      -0.32575373
Mo      10.00672000       5.00735200      10.31670900      -0.15322704       0.70993745       0.36744924
Mo      11.61932000       2.71535400      10.41649900       0.06036766      -0.39859332      -0.34935661
Mo       9.94365301      10.20137600       9.85019200       0.11302393      -0.29924031       0.47605750
Mo      11.69091401       7.19595800       9.50020100      -0.34250411       0.04832633      -0.32631534
Se       0.00205600       3.36500700      12.18303700       0.00733893      -0.07203892       0.58281005
Se       1.64366500       0.38202400      11.63668800       0.00038091      -0.08722540       0.39617059
Se       1.64447400       0.97704700       8.50305300       0.01425175       0.16459674      -0.63117955
Se       0.06915800       7.65467800      11.32481800      -0.02279736       0.04610436       0.39142539
Se       0.03528601       8.41701899       7.95669500       0.13234839      -0.04395849      -0.33113459
Se       1.69922300       4.73779500       8.49702100       0.09643579      -0.07518328      -0.57369947
Se       3.32156301       3.36500800      12.18303600       0.00627236      -0.07721268       0.57498232
Se       4.96317300       0.38202500      11.63668800      -0.00582090      -0.09265835       0.38664823
Se       4.96398100       0.97704900       8.50305400       0.00236930       0.16850459      -0.63575701
Se       3.38866500       7.65467800      11.32481800      -0.03283150       0.04503653       0.39711303
Se       3.35479300       8.41701899       7.95669400       0.14861232      -0.04882230      -0.33100302
Se       5.01873701       4.73781400       8.49701100       0.12097985      -0.07440022      -0.56918685
Se       6.64107100       3.36500700      12.18303700       0.00734194      -0.07203864       0.58280717
Se       8.28268000       0.38202400      11.63668800       0.00038281      -0.08722502       0.39616265
Se       8.28348900       0.97704700       8.50305300       0.01425399       0.16459461      -0.63117193
Se       6.70817300       7.65467800      11.32481800      -0.02279203       0.04610351       0.39142115
Se       6.67430101       8.41701899       7.95669500       0.13235369      -0.04395918      -0.33113078
Se       8.33823800       4.73779500       8.49702100       0.09643784      -0.07517893      -0.57368618
Se       9.96057801       3.36500800      12.18303600       0.00627172      -0.07721178       0.57497093
Se      11.60218800       0.38202500      11.63668800      -0.00582404      -0.09265814       0.38664350
Se      11.60299600       0.97704900       8.50305400       0.00236567       0.16850330      -0.63575241
Se      10.02768000       7.65467800      11.32481800      -0.03283332       0.04503385       0.39709892
Se       9.99380800       8.41701899       7.95669400       0.14861052      -0.04882435      -0.33098952
Se      11.65775201       4.73781400       8.49701100       0.12097645      -0.07439799      -0.56917937
40
Lattice="13.27803 0.0 0.0 0.0 10.891796 0.0 0.0 0.0 20.0" Properties=species:S:1:pos:R:3:forces:R:3 energy=-182.53240299999925 stress="-2.5708414943008263e-06 -7.886974441444321e-05 -0.0002221941577217143 -7.886974441444321e-05 0.02272183165277193 0.0002823334855348229 -0.0002221941577217143 0.0002823334855348229 -0.00790120588543063" pbc="T T T" 
Mo       0.03637000       5.14142299      10.31601300      -0.14619705       0.53170237       0.49350367
Mo       1.65965701       2.79886000      10.41295300       0.07595764      -0.52124644      -0.73357196
Mo       0.03334200      10.55948000       9.88712400      -0.23415578      -0.93312825      -0.18941231
Mo       1.69574801       7.36431200       9.47656600      -0.18870441       0.05758459      -0.29948803
Mo       3.35587600       5.14143800      10.31600000      -0.11228227       0.52152487       0.48463360
Mo       4.97916800       2.79886000      10.41295500      -0.01172642      -0.52112781      -0.73382267
Mo       3.35285000      10.55953900       9.88717800      -0.18804111      -0.94152002      -0.18732748
Mo       5.01528899       7.36429700       9.47658000      -0.11959711       0.05916795      -0.29663542
Mo       6.67538500       5.14142299      10.31601300      -0.14635170       0.53169492       0.49346806
Mo       8.29867201       2.79886000      10.41295300       0.07583014      -0.52126161      -0.73359438
Mo       6.67235700      10.55948000       9.88712400      -0.23430437      -0.93313054      -0.18942049
Mo       8.33476301       7.36431200       9.47656600      -0.18891012       0.05757366      -0.29950896
Mo       9.99489100       5.14143800      10.31600000      -0.11232744       0.52154556       0.48474683
Mo      11.61818399       2.79886100      10.41295500      -0.01168011      -0.52117859      -0.73386430
Mo       9.99186500      10.55953900       9.88717800      -0.18808470      -0.94151450      -0.18730375
Mo      11.65430399       7.36429700       9.47658000      -0.11948781       0.05915132      -0.29667381
Se      -0.00408100       3.44286400      12.14473300       0.04063233       0.11038500       0.87504662
Se       1.67662701       0.41661600      11.64718000       0.10513671       0.30859012       0.56600028
Se       1.67813300       1.00556601       8.51727400       0.09023287       0.30325480      -0.50506032
Se       0.02316100       7.85039900      11.27687200       0.09844310      -0.06447463       0.59487536
Se       0.03746000       8.65717000       7.99798600      -0.00778659       0.22200215      -0.25409209
Se       1.68382100       4.85159100       8.50792000       0.12203981       0.01163964      -0.55969174
Se       3.31542500       3.44286600      12.14472500       0.04016560       0.10930920       0.88208049
Se       4.99616801       0.41661700      11.64718400       0.10010799       0.31241875       0.57488143
Se       4.99763399       1.00557400       8.51727300       0.08312187       0.29521396      -0.49459739
Se       3.34265500       7.85033800      11.27691900       0.11278888      -0.06551331       0.59188149
Se       3.35721700       8.65724600       7.99846100       0.00288755       0.22194458      -0.25628229
Se       5.00332301       4.85159000       8.50792500       0.12630581       0.00527259      -0.55817577
Se       6.63493400       3.44286400      12.14473300       0.04056419       0.11039032       0.87496614
Se       8.31564201       0.41661600      11.64718000       0.10507266       0.30857976       0.56608692
Se       8.31714800       1.00556601       8.51727400       0.09015823       0.30327244      -0.50514612
Se       6.66217600       7.85039900      11.27687200       0.09833388      -0.06449839       0.59479041
Se       6.67647500       8.65717000       7.99798600      -0.00789714       0.22198521      -0.25401560
Se       8.32283600       4.85159100       8.50792000       0.12196288       0.01159213      -0.55983989
Se       9.95444000       3.44286600      12.14472500       0.04014819       0.10928809       0.88231474
Se      11.63518301       0.41661700      11.64718400       0.10014450       0.31240436       0.57503968
Se      11.63664899       1.00557400       8.51727300       0.08316401       0.29525242      -0.49475408
Se       9.98167000       7.85033800      11.27691900       0.11275425      -0.06544070       0.59215377
Se       9.99623200       8.65724600       7.99846100       0.00285452       0.22199516      -0.25653287
Se      11.64233801       4.85159000       8.50792500       0.12634381       0.00518494      -0.55846077
40
Lattice="13.27803 0.0 0.0 0.0 11.191796 0.0 0.0 0.0 20.0" Properties=species:S:1:pos:R:3:forces:R:3 energy=-180.44572999999946 stress="0.0015885964119426036 5.3253145239088544e-05 0.0005679723387051754 5.3253145239088544e-05 0.022619640703373474 -0.0004663322839126392 0.0005679723387051754 -0.0004663322839126392 -0.007743282765066435" pbc="T T T" 
Mo       0.03162000       5.29017600      10.31385000      -0.16722518       0.44959601       0.39957702
Mo       1.65927899       2.90453700      10.40942000       0.10278245      -0.47420651      -1.16532897
Mo      -0.00185300      10.79463100       9.79279200      -0.08409871       0.76840797       0.35467031
Mo       1.74844500       7.56640100       9.54455800      -0.38112889      -0.06588640      -0.29939308
Mo       3.35112700       5.29017700      10.31384900      -0.10590426       0.44738962       0.39619795
Mo       4.97878600       2.90454000      10.40942300       0.00628265      -0.47474830      -1.16564619
Mo       3.31765300      10.79463200       9.79279200      -0.08844074       0.76944631       0.35169236
Mo       5.06792800       7.56638200       9.54458400      -0.46417006      -0.06241582      -0.30131046
Mo       6.67063500       5.29017600      10.31385000      -0.16726040       0.44958563       0.39952084
Mo       8.29829399       2.90453601      10.40942000       0.10268730      -0.47419826      -1.16530668
Mo       6.63716200      10.79463100       9.79279100      -0.08414077       0.76845530       0.35466725
Mo       8.38746000       7.56640100       9.54455800      -0.38127491      -0.06588488      -0.29938578
Mo       9.99014200       5.29017700      10.31384900      -0.10599356       0.44738641       0.39622328
Mo      11.61780100       2.90454100      10.40942400       0.00623467      -0.47476323      -1.16570769
Mo       9.95666800      10.79463200       9.79279200      -0.08855489       0.76943567       0.35170138
Mo      11.70694300       7.56638200       9.54458400      -0.46422048      -0.06242217      -0.30132542
Se      -0.00505500       3.57919801      12.13632900       0.05419935      -0.01178149       0.80240176
Se       1.64199600       0.47352700      11.53742200       0.07793994      -0.08233727       0.61750158
Se       1.64984400       1.05313000       8.49799900       0.07714470       0.15266330      -0.41250556
Se       0.08534200       7.78817699      11.38589200      -0.01149281      -0.09234393       0.71908428
Se       0.03200300       8.89066500       8.08233000       0.23324510      -0.17255199      -0.46774070
Se       1.67877400       5.18258800       8.48430900       0.17108836      -0.45692680      -0.53724704