40
Lattice="13.27803 0.0 0.0 0.0 9.391796 0.0 0.0 0.0 20.0" Properties=species:S:1:pos:R:3:forces:R:3 energy=-186.5273930000003 stress="-0.009948789319873584 1.4690522824576152e-05 0.0005161882457485445 1.4690522824576152e-05 -0.016916596111337705 0.0020087453647254813 0.0005161882457485445 0.0020087453647254813 -0.009315535970366698" pbc="T T T" 
Mo       0.00272400       4.45892400      10.20695100       0.14837830       0.35637909       0.23683091
Mo       1.68352700       2.34737600      10.46786700      -0.05611739      -0.21753054       0.21871304
Mo       0.03342000       9.05082500       9.89600100      -0.00079532      -0.69860185       0.16970167
Mo       1.67932600       6.46626600       9.52637600      -0.03684162       0.46959537      -0.46743873
Mo       3.32223600       4.45892300      10.20695700       0.15112874       0.33627852       0.22686796
Mo       5.00303400       2.34737600      10.46786900      -0.04674690      -0.22906137       0.21322536
Mo       3.35292901       9.05082500       9.89600100       0.04981762      -0.70157944       0.17375318
Mo       4.99882600       6.46625700       9.52638100      -0.03734044       0.45866147      -0.46236743
Mo       6.64173900       4.45892400      10.20695100       0.14837881       0.35637902       0.23683101
Mo       8.32254200       2.34737600      10.46786700      -0.05611610      -0.21753054       0.21871307
Mo       6.67243500       9.05082500       9.89600100      -0.00079797      -0.69860046       0.16970647
Mo       8.31834100       6.46626600       9.52637600      -0.03684054       0.46959537      -0.46743873
Mo       9.96125100       4.45892300      10.20695700       0.15112925       0.33627857       0.22686781
Mo      11.64204900       2.34737600      10.46786900      -0.04674695      -0.22905788       0.21322250
Mo       9.99194401       9.05082500       9.89600100       0.04981526      -0.70158067       0.17374887
Mo      11.63784100       6.46625700       9.52638100      -0.03734052       0.45866098      -0.46236782
Se       0.02115800       3.07597700      12.25220200       0.02088746      -0.19956583       0.42248085
Se       1.71357000       0.19216100      11.75816300      -0.19790315       0.03697931       0.47515630
Se       1.68525399       0.87569300       8.42484200       0.06157636       0.26094974      -0.47947681
Se       0.02024900       6.79638300      11.41760000       0.02079411      -0.03722474       0.52481979
Se       0.01905000       7.45655600       7.88016400      -0.00453409       0.26977202      -0.67297988
Se       1.66210601       4.19468300       8.35472400       0.00528994      -0.20319821      -0.42352009
Se       3.34066000       3.07598200      12.25220200       0.03201607      -0.19950569       0.41995479
Se       5.03307700       0.19215800      11.75816300      -0.18844390       0.03830180       0.48239530
Se       5.00476400       0.87568200       8.42484100       0.06437295       0.26205668      -0.47911539
Se       3.33975800       6.79638600      11.41760100       0.02677853      -0.03726516       0.52573505
Se       3.33856000       7.45655900       7.88016300       0.01530367       0.27238274      -0.67550100
Se       4.98161600       4.19462000       8.35475700      -0.01369876      -0.20180446      -0.41932847
Se       6.66017300       3.07597700      12.25220200       0.02088795      -0.19956549       0.42248211
Se       8.35258500       0.19216100      11.75816300      -0.19790253       0.03697933       0.47515620
Se       8.32426899       0.87569300       8.42484200       0.06157669       0.26094969      -0.47947676
Se       6.65926400       6.79638300      11.41760000       0.02079442      -0.03722454       0.52482087
Se       6.65806500       7.45655600       7.88016400      -0.00453365       0.26977215      -0.67298098
Se       8.30112101       4.19468300       8.35472400       0.00529051      -0.20319818      -0.42352004
Se       9.97967500       3.07598200      12.25220200       0.03201656      -0.19950602       0.41995343
Se      11.67209200       0.19215800      11.75816200      -0.18844460       0.03830193       0.48240352
Se      11.64377900       0.87568200       8.42484100       0.06437292       0.26205696      -0.47911470
Se       9.97877300       6.79638600      11.41760100       0.02677881      -0.03726534       0.52573381
Se       9.97757500       7.45655900       7.88016300       0.01530408       0.27238259      -0.67549976
Se      11.62063100       4.19462000       8.35475700      -0.01369876      -0.20180379      -0.41932623
40
Lattice="13.27803 0.0 0.0 0.0 9.691796 0.0 0.0 0.0 20.0" Properties=species:S:1:pos:R:3:forces:R:3 energy=-186.80067299999973 stress="-0.00846578104073262 0.0005138928515572045 -0.0005110465627599428 0.0005138928515572045 -0.005734812847643915 0.0014783256749906289 -0.0005110465627599428 0.0014783256749906289 -0.009118591148749725" pbc="T T T" 
Mo       0.00216601       4.62024700      10.21308500       0.09103953       0.26038651       0.66482182
Mo       1.66365100       2.44607700      10.41834200       0.14909098      -0.21950808       0.08742888
Mo       0.05792900       9.35658100       9.89253600      -0.15042214      -0.99723581      -0.01738521
Mo       1.66249600       6.64477300       9.57533500       0.19966911       0.31521575      -0.88820413
Mo       3.32167200       4.62024600      10.21308400       0.09392446       0.24160833       0.65964935
Mo       4.98316000       2.44607600      10.41834100       0.09652297      -0.22255550       0.09052611
Mo       3.37743600       9.35658000       9.89253600      -0.21519163      -1.00208643      -0.01853020
Mo       4.98200100       6.64477400       9.57532800       0.12755244       0.30878126      -0.88946392
Mo       6.64118101       4.62024700      10.21308500       0.09112875       0.26038983       0.66481251
Mo       8.30266600       2.44607700      10.41834200       0.14914282      -0.21950659       0.08745274
Mo       6.69694400       9.35658100       9.89253600      -0.15029413      -0.99724183      -0.01738662
Mo       8.30151100       6.64477300       9.57533600       0.19973208       0.31521552      -0.88823219
Mo       9.96068700       4.62024700      10.21308400       0.09389785       0.24160399       0.65961705
Mo      11.62217500       2.44607600      10.41834100       0.09643527      -0.22255103       0.09054020
Mo      10.01645100       9.35658000       9.89253600      -0.21524316      -1.00210887      -0.01853303
Mo      11.62101600       6.64477400       9.57532800       0.12742928       0.30878123      -0.88946883
Se       0.00579301       3.13219400      12.19648900      -0.04952902      -0.05391804       0.45141152
Se       1.70275000       0.23950000      11.71575300       0.06845717       0.22718398       0.66384670
Se       1.73195699       0.88697400       8.42978900      -0.13654546       0.24021217      -0.52188948
Se       0.01143800       7.04971900      11.42879600      -0.03421465      -0.09948617       0.45803116
Se       0.01609700       7.68388000       7.93446700      -0.01719814       0.19839518      -0.51919506
Se       1.66611000       4.28956600       8.38032500      -0.04060124       0.14466169      -0.37850699
Se       3.32530000       3.13219500      12.19648900      -0.03774135      -0.05627955       0.44729277
Se       5.02225799       0.23950000      11.71575300       0.09023421       0.22683842       0.66461433
Se       5.05146400       0.88697400       8.42978900      -0.14164951       0.23867864      -0.52241120
Se       3.33094500       7.04971800      11.42879600      -0.02540194      -0.09636290       0.45673396
Se       3.33560500       7.68388000       7.93446700      -0.00474371       0.19953600      -0.52109043
Se       4.98561700       4.28956600       8.38032500      -0.04948464       0.14635512      -0.37653731
Se       6.64480801       3.13219400      12.19648900      -0.04948518      -0.05391809       0.45135532
Se       8.34176500       0.23950000      11.71575300       0.06848190       0.22720668       0.66368773
Se       8.37097199       0.88697400       8.42978900      -0.13652078       0.24018304      -0.52173331
Se       6.65045300       7.04971900      11.42879600      -0.03414937      -0.09948962       0.45796655
Se       6.65511200       7.68388000       7.93446700      -0.01712527       0.19839184      -0.51912374
Se       8.30512500       4.28956600       8.38032500      -0.04057558       0.14471861      -0.37831076
Se       9.96431500       3.13219500      12.19648900      -0.03775573      -0.05627500       0.44711423
Se      11.66127299       0.23950000      11.71575300       0.09017929       0.22685066       0.66453622
Se      11.69047900       0.88697400       8.42978900      -0.14170988       0.23866617      -0.52233793
Se       9.96996000       7.04971800      11.42879600      -0.02541973      -0.09637611       0.45652879
Se       9.97462000       7.68388000       7.93446700      -0.00476636       0.19952569      -0.52088577
Se      11.62463200       4.28956600       8.38032500      -0.04953382       0.14638369      -0.37643658
40
Lattice="13.27803 0.0 0.0 0.0 9.991796 0.0 0.0 0.0 20.0" Properties=species:S:1:pos:R:3:forces:R:3 energy=-186.66156299999966 stress="-0.005556414811092968 0.00025387059756220665 -0.0007952163636478378 0.00025387059756220665 0.005181163768692701 -0.0008317590391739709 -0.0007952163636478378 -0.0008317590391739709 -0.007953173609922566" pbc="T T T" 
Mo      -0.00019000       4.78060500      10.21407900       0.04658772      -0.19505113       0.97728371
Mo       1.66008200       2.49896400      10.41606300       0.07080981       0.07292181      -0.39501182
Mo       0.08814700       9.60469600       9.89679000      -0.57824593      -0.56984158       0.00383848
Mo       1.66035400       6.86826100       9.57858000       0.14630475       0.05474455      -0.71717192
Mo       3.31931600       4.78060600      10.21407900       0.04628554      -0.20379046       0.96864794
Mo       4.97959000       2.49896400      10.41606300       0.00261072       0.07325464      -0.39572908
Mo       3.40765500       9.60469600       9.89679000      -0.57950903      -0.54046662       0.00632103
Mo       4.97985900       6.86825800       9.57858000       0.06160677       0.05479440      -0.71741368
Mo       6.63882500       4.78060500      10.21407900       0.04658778      -0.19505113       0.97728371
Mo       8.29909700       2.49896400      10.41606300       0.07080981       0.07292181      -0.39501180
Mo       6.72716200       9.60469600       9.89679000      -0.57824588      -0.56984161       0.00383848
Mo       8.29936900       6.86826100       9.57858000       0.14630478       0.05474452      -0.71717195
Mo       9.95833100       4.78060600      10.21407900       0.04628554      -0.20379046       0.96864792
Mo      11.61860500       2.49896400      10.41606300       0.00261067       0.07325464      -0.39572908
Mo      10.04667000       9.60469600       9.89679000      -0.57950906      -0.54046662       0.00632103
Mo      11.61887400       6.86825800       9.57858000       0.06160670       0.05479438      -0.71741368
Se      -0.00907000       3.19571600      12.15936800       0.04575008       0.14822069       0.47451996
Se       1.70861800       0.25179200      11.69567000       0.25051710       0.32392123       0.59091177
Se       1.74621500       0.89686200       8.45212700      -0.02695619       0.14508649      -0.41467444
Se       0.00135700       7.22808400      11.43955600       0.03022952       0.00734865       0.38218217
Se       0.00786500       7.91883700       7.95218600       0.05453524       0.23102695      -0.56304076
Se       1.65700800       4.54039600       8.38049100       0.02302837      -0.22419612      -0.32382885
Se       3.31043700       3.19571600      12.15936800       0.04110659       0.14632098       0.47943002
Se       5.02812599       0.25179200      11.69567000       0.27638135       0.32168151       0.58812562
Se       5.06572201       0.89686200       8.45212700      -0.04556782       0.14810635      -0.41376705
Se       3.32086300       7.22808400      11.43955600       0.03200160       0.00659509       0.38095265
Se       3.32737400       7.91883700       7.95218600       0.06466880       0.23244559      -0.56168442
Se       4.97651499       4.54039600       8.38049200       0.02506360      -0.22586248      -0.32615397
Se       6.62994500       3.19571600      12.15936800       0.04575011       0.14822069       0.47451990
Se       8.34763300       0.25179200      11.69567000       0.25051713       0.32392125       0.59091167
Se       8.38523000       0.89686200       8.45212700      -0.02695619       0.14508646      -0.41467436
Se       6.64037200       7.22808400      11.43955600       0.03022957       0.00734865       0.38218212
Se       6.64688000       7.91883700       7.95218600       0.05453529       0.23102695      -0.56304070
Se       8.29602300       4.54039600       8.38049100       0.02302837      -0.22419607      -0.32382874
Se       9.94945200       3.19571600      12.15936800       0.04110657       0.14632098       0.47942991
Se      11.66714099       0.25179200      11.69567000       0.27638132       0.32168151       0.58812560
Se      11.70473701       0.89686200       8.45212700      -0.04556784       0.14810633      -0.41376702
Se       9.95987800       7.22808400      11.43955600       0.03200157       0.00659506       0.38095254
Se       9.96638900       7.91883700       7.95218600       0.06466878       0.23244559      -0.56168432
Se      11.61552999       4.54039600       8.38049200       0.02506358      -0.22586246      -0.32615392
40
Lattice="13.27803 0.0 0.0 0.0 10.291796 0.0 0.0 0.0 20.0" Properties=species:S:1:pos:R:3:forces:R:3 energy=-185.72879999999896 stress="-0.003858282188339619 -0.00021659339589484464 -0.0005502518955480305 -0.00021659339589484464 0.009846139291636859 0.00021943968469210625 -0.0005502518955480305 0.00021943968469210625 -0.008310796024933342" pbc="T T T" 
Mo       0.00168500       4.93145800      10.21057400       0.07771296      -0.28204513       0.70523226
Mo       1.72334500       2.60975400      10.34748100      -0.34925405      -0.02100717      -0.26983552
Mo       0.02817400       9.85442400       9.94593800      -0.11600191      -0.22589755       0.19606949
Mo       1.66133300       7.00832000       9.58059900       0.22891940       0.64533326      -0.57758641
Mo       3.32119200       4.93145700      10.21057400       0.07826950      -0.27129087       0.69586277
Mo       5.04285201       2.60975400      10.34748100      -0.34508663      -0.02031902      -0.26597709
Mo       3.34768201       9.85442400       9.94593800      -0.05695891      -0.22805880       0.19855384
Mo       4.98084100       7.00832000       9.58059900       0.15955031       0.64405231      -0.57727282
Mo       6.64070000       4.93145800      10.21057400       0.07771288      -0.28204526       0.70523228
Mo       8.36236000       2.60975400      10.34748100      -0.34925439      -0.02100715      -0.26983555
Mo       6.66718900       9.85442400       9.94593800      -0.11600374      -0.22589460       0.19606730
Mo       8.30034800       7.00832000       9.58059900       0.22891906       0.64533329      -0.57758644
Mo       9.96020700       4.93145700      10.21057400       0.07826943      -0.27129077       0.69586277
Mo      11.68186701       2.60975400      10.34748100      -0.34508658      -0.02032241      -0.26598046
Mo       9.98669701       9.85442400       9.94593800      -0.05696071      -0.22806173       0.19855600
Mo      11.61985600       7.00832000       9.58059900       0.15955033       0.64405221      -0.57727256
Se       0.04366200       3.30939100      12.09700800       0.17250677       0.00289049       0.54692886
Se       1.68732600       0.38011600      11.69353900       0.04797771      -0.12794564       0.54668023
Se       1.68692300       0.83998800       8.50968800       0.03821112       0.25298006      -0.61837139
Se       0.00723200       7.42065300      11.42582300      -0.01332955       0.13739321       0.43309292
Se       0.01809201       8.15762900       8.00396400      -0.08734848       0.04808174      -0.55578284
Se       1.66261201       4.70718400       8.37029800      -0.01839465      -0.41524057      -0.39313806
Se       3.36317000       3.30939100      12.09700800       0.17577816       0.00588276       0.55380276
Se       5.00683300       0.38011600      11.69353900       0.05413206      -0.13017630       0.54094557
Se       5.00643000       0.83998800       8.50968800       0.04375000       0.25138053      -0.61889191
Se       3.32674000       7.42065300      11.42582300      -0.01098051       0.13802842       0.42977957
Se       3.33760000       8.15762900       8.00396400      -0.06452829       0.04846466      -0.55272389
Se       4.98211900       4.70718400       8.37029800      -0.02129570      -0.41452892      -0.39187827
Se       6.68267700       3.30939100      12.09700800       0.17250697       0.00289051       0.54692894
Se       8.32634100       0.38011600      11.69353900       0.04797751      -0.12794564       0.54668026
Se       8.32593800       0.83998800       8.50968800       0.03821138       0.25298006      -0.61837139
Se       6.64624700       7.42065300      11.42582300      -0.01332953       0.13739323       0.43309290
Se       6.65710701       8.15762900       8.00396400      -0.08734874       0.04808218      -0.55578276
Se       8.30162701       4.70718400       8.37029800      -0.01839473      -0.41524060      -0.39313806
Se      10.00218500       3.30939100      12.09700800       0.17577831       0.00588271       0.55380270
Se      11.64584800       0.38011600      11.69353900       0.05413206      -0.13017622       0.54094606
Se      11.64544500       0.83998700       8.50968800       0.04375000       0.25138966      -0.61889299
Se       9.96575500       7.42065300      11.42582300      -0.01098049       0.13802837       0.42977962
Se       9.97661500       8.15762900       8.00396400      -0.06452852       0.04846422      -0.55272400
Se      11.62113400       4.70718400       8.37029800      -0.02129573      -0.41452935      -0.39187855
40
Lattice="13.27803 0.0 0.0 0.0 10.591796 0.0 0.0 0.0 20.0" Properties=species:S:1:pos:R:3:forces:R:3 energy=-184.3397989999994 stress="-0.0012405228367678024 -0.000488918962755425 -0.0005318887420173103 -0.000488918962755425 0.01751991752058952 -0.0004007758258079681 -0.0005318887420173103 -0.0004007758258079681 -0.007215433916825884" pbc="T T T" 
Mo      -0.00001700       5.04303700      10.21224800      -0.00931783       0.08730518       0.81300152
Mo       1.73153700       2.67706300      10.33780800      -0.38785557      -0.21081919      -0.46988971
Mo       0.04787100      10.13703100       9.94197200      -0.35726219      -0.08755903       0.39165008
Mo       1.65970400       7.22755500       9.58273600       0.13399213      -0.01933825      -0.33808310
Mo       3.31949100       5.04303700      10.21224800      -0.01361769       0.08066551       0.80388537
Mo       5.05104500       2.67706300      10.33780800      -0.40345250      -0.20557936      -0.46953268
Mo       3.36737899      10.13703100       9.94197200      -0.37002687      -0.08677587       0.38383562
Mo       4.97921101       7.22755500       9.58273600       0.03861887      -0.01836904      -0.33849854
Mo       6.63899800       5.04303700      10.21224800      -0.00931783       0.08730518       0.81300152
Mo       8.37055200       2.67706300      10.33780800      -0.38785559      -0.21081919      -0.46988971
Mo       6.68688600      10.13703100       9.94197200      -0.35726219      -0.08755903       0.39165011
Mo       8.29871900       7.22755500       9.58273600       0.13399213      -0.01933825      -0.33808310
Mo       9.95850600       5.04303700      10.21224800      -0.01361769       0.08066551       0.80388537
Mo      11.69006000       2.67706300      10.33780800      -0.40345252      -0.20557936      -0.46953268
Mo      10.00639399      10.13703100       9.94197200      -0.37002687      -0.08677587       0.38383562
Mo      11.61822601       7.22755500       9.58273600       0.03861887      -0.01836904      -0.33849854
Se       0.04582400       3.37234400      12.07665100       0.22308093       0.11925482       0.50311731
Se       1.69003100       0.39604400      11.67756300       0.18773377       0.05030091       0.45315913
Se       1.69518801       0.84202601       8.51759400       0.11050373       0.34372065      -0.54735895
Se      -0.00296700       7.65330900      11.42445200       0.05916479       0.00906859       0.27074037
Se      -0.00053800       8.40646000       8.04271400       0.04749733      -0.00290054      -0.70655933
Se       1.65375100       4.89874900       8.37117400       0.04660773      -0.29796008      -0.32460329
Se       3.36533100       3.37234400      12.07665100       0.21988816       0.12178550       0.50547326
Se       5.00953800       0.39604400      11.67756300       0.20119724       0.04654636       0.44877884
Se       5.01469500       0.84202601       8.51759400       0.13097938       0.34871350      -0.55360321
Se       3.31654100       7.65330900      11.42445200       0.05875799       0.00991821       0.26469879
Se       3.31897001       8.40646000       8.04271400       0.04673037      -0.00208077      -0.70798452
Se       4.97325900       4.89874900       8.37117400       0.05437385      -0.29807909      -0.32992689
Se       6.68483900       3.37234400      12.07665100       0.22308093       0.11925479       0.50311731
Se       8.32904600       0.39604400      11.67756300       0.18773377       0.05030091       0.45315913
Se       8.33420301       0.84202601       8.51759400       0.11050373       0.34372065      -0.54735895
Se       6.63604800       7.65330900      11.42445200       0.05916479       0.00906859       0.27074037
Se       6.63847700       8.40646000       8.04271400       0.04749733      -0.00290054      -0.70655933
Se       8.29276600       4.89874900       8.37117400       0.04660773      -0.29796008      -0.32460329
Se      10.00434600       3.37234400      12.07665100       0.21988816       0.12178550       0.50547326
Se      11.64855300       0.39604400      11.67756300       0.20119724       0.04654636       0.44877884
Se      11.65371000       0.84202601       8.51759400       0.13097938       0.34871348      -0.55360319
Se       9.95555600       7.65330900      11.42445200       0.05875799       0.00991821       0.26469879
Se       9.95798501       8.40646000       8.04271400       0.04673037      -0.00208077      -0.70798452
Se      11.61227400       4.89874900       8.37117400       0.05437385      -0.29807909      -0.32992689
40
Lattice="13.27803 0.0 0.0 0.0 10.891796 0.0 0.0 0.0 20.0" Properties=species:S:1:pos:R:3:forces:R:3 energy=-182.4889349999994 stress="0.00036157049301988053 -0.00032769047475570177 -0.00023706831208159763 -0.00032769047475570177 0.023368765551659208 -0.000521146297201839 -0.00023706831208159763 -0.000521146297201839 -0.006441243363970721" pbc="T T T" 
Mo       0.00243700       5.20054800      10.21372700       0.01520736      -0.16105031       0.85787825
Mo       1.70048601       2.73243700      10.31229500      -0.18683311      -0.08076360      -0.42891704
Mo       0.05808100      10.42597900       9.95545700      -0.38425919      -0.12321812       0.32960537
Mo       1.66118101       7.43974500       9.58350800       0.16693169      -0.33955359      -0.23088801
Mo       3.32194500       5.20054800      10.21372700       0.02491523      -0.16107405       0.84974246
Mo       5.01999400       2.73243700      10.31229500      -0.11165695      -0.07907865      -0.43009509
Mo       3.37758900      10.42597900       9.95545700      -0.44738741      -0.12017183       0.32650583
Mo       4.98068900       7.43974500       9.58350800       0.07270378      -0.34164179      -0.23244376
Mo       6.64145200       5.20054800      10.21372700       0.01518188      -0.16104733       0.85789335
Mo       8.33950101       2.73243700      10.31229500      -0.18683226      -0.08076954      -0.42893270
Mo       6.69709600      10.42597900       9.95545700      -0.38428289      -0.12321815       0.32960823
Mo       8.30019601       7.43974500       9.58350800       0.16693081      -0.33955004      -0.23088997
Mo       9.96096000       5.20054800      10.21372700       0.02493870      -0.16106605       0.84975408
Mo      11.65900900       2.73243700      10.31229500      -0.11162258      -0.07908027      -0.43009633
Mo      10.01660400      10.42597900       9.95545700      -0.44736491      -0.12017759       0.32651293
Mo      11.61970300       7.43974500       9.58350800       0.07276822      -0.34164181      -0.23244340
Se       0.02829600       3.45673500      12.03977900       0.08459167       0.19720496       0.35186223
Se       1.69803100       0.42199000      11.66766600       0.16650144       0.21241170       0.46808325
Se       1.69753800       0.83133500       8.53059400       0.14142429       0.40976769      -0.53371804
Se       0.00532300       7.86476800      11.42216500       0.00109897      -0.01225936       0.23317935
Se       0.00763300       8.65842700       8.08021900       0.00898243      -0.00317727      -0.76229887
Se       1.66137700       5.05635700       8.37950200      -0.00814749      -0.09441919      -0.26672001
Se       3.34780400       3.45673500      12.03977900       0.10687688       0.19905534       0.35621652
Se       5.01753900       0.42199000      11.66766600       0.18185897       0.21049831       0.46488289
Se       5.01704500       0.83133600       8.53059400       0.15333934       0.40477065      -0.53392687
Se       3.32483099       7.86476800      11.42216500       0.00373622      -0.01629311       0.22755830
Se       3.32714000       8.65842700       8.08021900       0.02102116      -0.00037217      -0.76556281
Se       4.98088499       5.05635700       8.37950200       0.00927322      -0.09508388      -0.26934424
Se       6.66731100       3.45673500      12.03977900       0.08457979       0.19720214       0.35190316
Se       8.33704600       0.42199000      11.66766600       0.16650111       0.21240895       0.46812236
Se       8.33655300       0.83133500       8.53059400       0.14142426       0.40977397      -0.53375697
Se       6.64433800       7.86476800      11.42216500       0.00108619      -0.01225090       0.23322494
Se       6.64664800       8.65842700       8.08021900       0.00896842      -0.00316917      -0.76234037
Se       8.30039200       5.05635700       8.37950200      -0.00814788      -0.09443786      -0.26679028
Se       9.98681900       3.45673599      12.03977900       0.10688876       0.19904557       0.35625884
Se      11.65655400       0.42199000      11.66766600       0.18187396       0.21049862       0.46488413
Se      11.65606000       0.83133500       8.53059400       0.15335786       0.40477821      -0.53392928
Se       9.96384599       7.86476800      11.42216500       0.00374782      -0.01628444       0.22760564
Se       9.96615500       8.65842700       8.08021900       0.02103276      -0.00036461      -0.76560601
Se      11.61989999       5.05635700       8.37950200       0.00929235      -0.09508467      -0.26934583
40
Lattice="13.27803 0.0 0.0 0.0 11.191796 0.0 0.0 0.0 20.0" Properties=species:S:1:pos:R:3:forces:R:3 energy=-180.29439999999886 stress="0.0019520950360832096 -0.00045338626067348146 -0.00016756377596782173 -0.00045338626067348146 0.027363210523429115 -0.0006314170341538137 -0.00016756377596782173 -0.0006314170341538137 -0.006163959745656845" pbc="T T T" 
Mo       0.09721200       5.27609800      10.24477400      -0.19124430       0.39065954       0.66078374
Mo       1.69175301       2.79730600      10.30947100      -0.21459292      -0.25465444      -0.55050632
Mo      -0.00574600      10.73707800       9.94625000       0.03471301      -0.24119749      -0.02331690
Mo       1.66029300       7.66228400       9.58272900       0.11908950      -0.84120359      -0.18662189
Mo       3.41671900       5.27609700      10.24477400      -0.16177215       0.39268302       0.67663673
Mo       5.01126100       2.79730600      10.30947100      -0.16780460      -0.25439430      -0.55547811
Mo       3.31376099      10.73707800       9.94625000       0.00944456      -0.24056883      -0.01975615
Mo       4.97980800       7.66228400       9.58272900       0.03022396      -0.84377619      -0.18702761
Mo       6.73622700       5.27609800      10.24477400      -0.19117796       0.39063725       0.66072152
Mo       8.33076801       2.79730600      10.30947100      -0.21461966      -0.25463652      -0.55044749
Mo       6.63326800      10.73707800       9.94625000       0.03479806      -0.24118076      -0.02332921
Mo       8.29930901       7.66228400       9.58272900       0.11906520      -0.84121524      -0.18660968
Mo      10.05573400       5.27609700      10.24477400      -0.16186818       0.39267837       0.67658675
Mo      11.65027600       2.79730600      10.30947100      -0.16791521      -0.25439067      -0.55549374
Mo       9.95277599      10.73707800       9.94625000       0.00936650      -0.24056606      -0.01976983
Mo      11.61882200       7.66228400       9.58272900       0.03009386      -0.84377346      -0.18702545
Se       0.02210200       3.51399800      12.03252500       0.12499074       0.11649281       0.45801759
Se       1.65546400       0.44684000      11.64033400       0.05405282       0.29675760       0.57306662
Se       1.65032000       0.85805200       8.52022300       0.04908406       0.37029365      -0.37897274
Se      -0.00509799       8.07301500      11.40772900       0.02608261       0.07363118       0.33249758
Se      -0.00016600       8.88776100       8.08386100       0.03515521       0.18685350      -0.47752768
Se       1.75424700       5.27059500       8.41701700       0.01648723      -0.10671565      -0.42340465