48
Lattice="13.176256 0.0 0.0 0.0 11.560944 0.0 0.0 0.0 29.53005" Properties=species:S:1:pos:R:3:forces:R:3 energy=-230.12930400000005 stress="-0.0033702813832607297 -4.223525312065643e-06 3.94807800910484e-06 -4.223525312065643e-06 -0.0011454017014786717 -5.508946059216056e-07 3.94807800910484e-06 -5.508946059216056e-07 -0.00018904866559876435" pbc="T T T" 
Mo      -2.17042074       5.48644611       2.95329159       0.01013462       0.03099190      -0.01631301
Se      -2.17083137       3.56686743       4.65618746       0.00234819      -0.01784533       0.01766896
Se      -2.17094329       3.56681326       1.24947562       0.00231003      -0.01656366      -0.00202271
Mo      -0.52366635       2.59589960       2.95339409       0.00146969       0.02413798      -0.01717417
Se      -0.52357697       0.67639450       4.65621138       0.00023114      -0.02046269       0.01933645
Se      -0.52364625       0.67620202       1.24957588      -0.00007942      -0.01920483      -0.00361032
Mo      -2.17039991      11.26693310       2.95330154       0.00916598       0.02937540      -0.01632933
Se      -2.17075763       9.34731893       4.65622602       0.00164558      -0.01693838       0.01914911
Se      -2.17091712       9.34727755       1.24953749       0.00149628      -0.01545822      -0.00457584
Mo      -0.52370247       8.37637222       2.95330130       0.00357602       0.02556852      -0.01625850
Se      -0.52355143       6.45707192       4.65617553      -0.00036523      -0.02246828       0.01930171
Se      -0.52361876       6.45693747       1.24955028       0.00024775      -0.02302899      -0.00394546
Mo       1.12281401       5.48626976       2.95351811       0.00053590       0.02884757      -0.01660408
Se       1.12380331       3.56686343       4.65633803      -0.00636597      -0.02029408       0.01565254
Se       1.12367528       3.56680171       1.24934649      -0.00486412      -0.02089171       0.00039045
Mo       2.77021593       2.59643393       2.95354203       0.00394914       0.03085409      -0.01949236
Se       2.77053094       0.67684416       4.65604669      -0.00298557      -0.01408882       0.02325010
Se       2.77046896       0.67673712       1.24970894      -0.00150389      -0.01441816      -0.00720464
Mo       1.12283248      11.26667780       2.95347149       0.00068564       0.02850202      -0.01645223
Se       1.12386766       9.34726963       4.65627806      -0.00754598      -0.02019833       0.01673289
Se       1.12376751       9.34719514       1.24936397      -0.00558436      -0.02105124      -0.00054196
Mo       2.77028628       8.37695386       2.95351808       0.00308360       0.03162449      -0.01944528
Se       2.77054338       6.45755521       4.65598214      -0.00350333      -0.01666857       0.02460474
Se       2.77049111       6.45745490       1.24979272      -0.00126758      -0.01672510      -0.00642048
Mo       4.41746464       5.48643502       2.95352192       0.01076038       0.03214828      -0.01864775
Se       4.41701259       3.56713911       4.65623494       0.00233418      -0.01846716       0.02016339
Se       4.41699903       3.56710087       1.24950244       0.00178206      -0.01780499      -0.00359080
Mo       6.06381695       2.59618844       2.95334495       0.00576192       0.02626071      -0.01807015
Se       6.06389038       0.67668758       4.65611328       0.00316698      -0.02139479       0.02101741
Se       6.06392847       0.67666079       1.24952036       0.00217132      -0.02038751      -0.00399454
Mo       4.41752089      11.26694480       2.95342332       0.01009058       0.03045516      -0.01751541
Se       4.41700025       9.34761157       4.65623444       0.00205845      -0.01760378       0.02210385
Se       4.41700337       9.34751735       1.24953687       0.00212507      -0.01724627      -0.00585628
Mo       6.06372125       8.37671390       2.95334640       0.00781801       0.02783312      -0.01866287
Se       6.06377379       6.45740681       4.65605065       0.00389082      -0.02450015       0.02130051
Se       6.06382348       6.45740930       1.24961185       0.00258164      -0.02490448      -0.00429531
Mo       7.71020398       5.48649240       2.95318203       0.00468239       0.02924252      -0.01457371
Se       7.71137015       3.56699271       4.65631497      -0.00558037      -0.01889293       0.01473175
Se       7.71131946       3.56698300       1.24934548      -0.00450889      -0.01996742       0.00126779
Mo       9.35803633       2.59669686       2.95320377       0.00290329       0.03166049      -0.01684957
Se       9.35838052       0.67680633       4.65593397      -0.00202631      -0.01377199       0.02088716
Se       9.35834630       0.67671760       1.24971166       0.00042829      -0.01438504      -0.00535615
Mo       7.71025052      11.26699473       2.95316659       0.00545156       0.02705449      -0.01527832
Se       7.71134304       9.34745282       4.65628680      -0.00490538      -0.01880945       0.01580298
Se       7.71130325       9.34737613       1.24935759      -0.00413410      -0.01902010       0.00036235
Mo       9.35805114       8.37718730       2.95317326       0.00197754       0.03278049      -0.01594470
Se       9.35837880       6.45744711       4.65585764      -0.00247911      -0.01645573       0.02285937
Se       9.35830709       6.45742060       1.24970321       0.00031910      -0.01721547      -0.00631401
48
Lattice="13.376256 0.0 0.0 0.0 11.560944 0.0 0.0 0.0 29.53005" Properties=species:S:1:pos:R:3:forces:R:3 energy=-230.21638100000018 stress="-7.280990374930555e-05 -5.398767138031736e-05 8.355234856477685e-06 -5.398767138031736e-05 -6.225109046914144e-05 2.754473029608028e-06 8.355234856477685e-06 2.754473029608028e-06 7.831884980852161e-05" pbc="T T T" 
Mo      -2.20310949       5.49315942       2.95380231      -0.00116983      -0.01961464      -0.03229882
Se      -2.20396557       3.56391533       4.64823658       0.01522772       0.01227810       0.01057816
Se      -2.20397895       3.56366099       1.25694658       0.01359188       0.01304056       0.02011917
Mo      -0.53056919       2.60236849       2.95377278      -0.00805822      -0.01334094      -0.02577901
Se      -0.53196032       0.67352904       4.64847282       0.01706997       0.00937075       0.00256624
Se      -0.53204058       0.67334406       1.25682846       0.01583985       0.00936661       0.02446346
Mo      -2.20310949      11.27300713       2.95389090       0.00119358      -0.01036299      -0.03538034
Se      -2.20396557       9.34428328       4.64782316       0.01453905       0.01053543       0.01213653
Se      -2.20400570       9.34408674       1.25736000       0.01421373       0.01207557       0.02224801
Mo      -0.53056919       8.38307171       2.95380231      -0.00943091      -0.01599856      -0.02918884
Se      -0.53200045       6.45426694       4.64829564       0.01671292       0.01253765       0.00604685
Se      -0.53200045       6.45400104       1.25694658       0.01468535       0.01455710       0.02043055
Mo       1.14136917       5.49305537       2.95380231      -0.01047030      -0.01879934      -0.02119396
Se       1.14008505       3.56395001       4.64879765       0.01753030       0.01125981      -0.00148204
Se       1.14007168       3.56383440       1.25641504       0.01574731       0.01132065       0.02330001
Mo       2.81325403       2.60236849       2.95374325      -0.00751264      -0.01180003      -0.01881438
Se       2.81206355       0.67363308       4.64885671       0.01318372       0.00943536      -0.00338841
Se       2.81195654       0.67356372       1.25650363       0.01509772       0.00902462       0.02415639
Mo       1.14135580      11.27285684       2.95380231      -0.00866182      -0.00602235      -0.02498192
Se       1.14007168       9.34437577       4.64826611       0.01723256       0.01045627       0.00339149
Se       1.14008505       9.34426016       1.25682846       0.01627490       0.01019252       0.02276537
Mo       2.81333429       8.38307171       2.95380231      -0.00867616      -0.01209797      -0.02337611
Se       2.81206355       6.45440567       4.64876812       0.01251140       0.01243740       0.00271889
Se       2.81195654       6.45423226       1.25665128       0.01448827       0.01450478       0.01695566
Mo       4.48441658       5.49318254       2.95380231       0.00857802      -0.01508693      -0.02410152
Se       4.48421593       3.56412343       4.64897483       0.00913724       0.01135011       0.00068841
Se       4.48392166       3.56398469       1.25644457       0.01472617       0.01187456       0.02029791
Mo       6.15647533       2.60247254       2.95380231       0.00868742      -0.00914572      -0.02998300
Se       6.15592690       0.67380650       4.64844329       0.00820997       0.00830415       0.00769449
Se       6.15583327       0.67373713       1.25659222       0.01132733       0.00706848       0.02576179
Mo       4.48452359      11.27294932       2.95380231       0.00731438      -0.00526073      -0.02775190
Se       4.48428281       9.34465323       4.64847282       0.00884971       0.00915464       0.00399025
Se       4.48400191       9.34445669       1.25676940       0.01366667       0.01099910       0.02217649
Mo       6.15643520       8.38321044       2.95383184       0.00889939      -0.01066453      -0.03310203
Se       6.15587340       6.45454440       4.64841376       0.00800708       0.01301012       0.01043531
Se       6.15581989       6.45441723       1.25671034       0.01111167       0.01318639       0.02156570
Mo       7.82795890       5.49334439       2.95386137       0.01503013      -0.01553265      -0.03646095
Se       7.82818630       3.56418123       4.64841376       0.00803308       0.01022816       0.01058035
Se       7.82793215       3.56406562       1.25665128       0.01241601       0.01095467       0.02451231
Mo       9.50083361       2.60249566       2.95383184       0.00407702      -0.00970674      -0.03661984
Se       9.50007116       0.67365621       4.64808893       0.01103384       0.00831631       0.01314808
Se       9.50003103       0.67350591       1.25697611       0.01103690       0.00775072       0.02508448
Mo       7.82811942      11.27315742       2.95389090       0.01176059      -0.00784431      -0.03904228
Se       7.82814617       9.34453762       4.64794128       0.00824615       0.01066316       0.01292751
Se       7.82795890       9.34436421       1.25715329       0.01168268       0.01099738       0.02542577
Mo       9.50084698       8.38322201       2.95386137       0.00420147      -0.01583805      -0.03871673
Se       9.50005778       6.45430162       4.64794128       0.01089114       0.01362983       0.01341177
Se       9.50001766       6.45413977       1.25703517       0.01071906       0.01394314       0.02444626
48
Lattice="13.576256 0.0 0.0 0.0 11.560944 0.0 0.0 0.0 29.53005" Properties=species:S:1:pos:R:3:forces:R:3 energy=-229.9558679999991 stress="0.0036669381285495146 4.1317095444120426e-05 6.518919503405667e-06 4.1317095444120426e-05 0.0009614947188685091 -1.4690522824576152e-06 6.518919503405667e-06 -1.4690522824576152e-06 0.00014387530791319268" pbc="T T T" 
Mo      -2.23678115       5.49705139       2.95228872      -0.00558744      -0.00483288       0.02453195
Se      -2.23674578       3.56143466       4.64026976       0.00206439       0.00639899      -0.02603088
Se      -2.23672053       3.56139133       1.26636811      -0.00106549       0.00650060      -0.00013236
Mo      -0.53948368       2.60673744       2.95214579      -0.00709409      -0.00658442       0.02985272
Se      -0.53964187       0.67101396       4.64044685       0.00138338       0.00846556      -0.02844355
Se      -0.53966524       0.67098491       1.26636474      -0.00181229       0.00857093      -0.00221575
Mo      -2.23677478      11.27751460       2.95232073      -0.00592601      -0.00868352       0.02442625
Se      -2.23671579       9.34176035       4.64026426       0.00148620       0.00703215      -0.02654749
Se      -2.23670164       9.34170784       1.26642832      -0.00190262       0.00791512      -0.00021713
Mo      -0.53950044       8.38713948       2.95214190      -0.00577909      -0.00496750       0.02896525
Se      -0.53974283       6.45177160       4.64038472       0.00257244       0.00508055      -0.02767204
Se      -0.53966443       6.45172782       1.26640237      -0.00110498       0.00507212      -0.00242614
Mo       1.15747811       5.49687636       2.95210109      -0.00514419      -0.00096427       0.03347232
Se       1.15746442       3.56149343       4.64055144       0.00084931       0.00581625      -0.02897718
Se       1.15749976       3.56147237       1.26648112      -0.00055235       0.00567795      -0.00569556
Mo       2.85436646       2.60669944       2.95210634      -0.00420576      -0.00385576       0.03468714
Se       2.85427369       0.67113755       4.64063439       0.00087849       0.00751215      -0.03072165
Se       2.85425145       0.67114831       1.26641698       0.00132754       0.00711635      -0.00422260
Mo       1.15738654      11.27748010       2.95206388      -0.00546838      -0.00899704       0.03277133
Se       1.15739187       9.34182161       4.64048881       0.00201477       0.00768449      -0.02978677
Se       1.15745935       9.34184596       1.26633270      -0.00046316       0.00609457      -0.00248726
Mo       2.85444377       8.38717250       2.95212303      -0.00485792      -0.00277741       0.03208380
Se       2.85427823       6.45199815       4.64072688       0.00001098       0.00397937      -0.03142495
Se       2.85423896       6.45186730       1.26634827       0.00177185       0.00515792      -0.00140467
Mo       4.55124244       5.49702412       2.95218238      -0.00461991      -0.00103078       0.03036491
Se       4.55133322       3.56172108       4.64057554      -0.00192928       0.00509539      -0.02904480
Se       4.55112295       3.56166329       1.26645711       0.00259995       0.00524636      -0.00324813
Mo       6.24822992       2.60690799       2.95226028      -0.00329852      -0.00654865       0.02597555
Se       6.24785014       0.67124280       4.64036797       0.00193933       0.00907499      -0.02548670
Se       6.24784495       0.67121449       1.26624766       0.00401611       0.00904434      -0.00078365
Mo       4.55136002      11.27759534       2.95210894      -0.00670377      -0.00864006       0.03042680
Se       4.55141359       9.34208025       4.64054134      -0.00257257       0.00679761      -0.02953079
Se       4.55122545       9.34203824       1.26629942       0.00147640       0.00595717      -0.00071731
Mo       6.24820843       8.38737253       2.95229669      -0.00369902      -0.00561334       0.02492831
Se       6.24781294       6.45207468       4.64041407       0.00091801       0.00512256      -0.02618443
Se       6.24778625       6.45204605       1.26628540       0.00318470       0.00491572      -0.00034620
Mo       7.94503141       5.49724690       2.95234686      -0.00258985      -0.00359412       0.02202469
Se       7.94514047       3.56168686       4.64027856       0.00026811       0.00659881      -0.02495893
Se       7.94502246       3.56164500       1.26626068       0.00279068       0.00615370       0.00118710
Mo       9.64234262       2.60697694       2.95235419      -0.00430488      -0.00869439       0.02146121
Se       9.64210290       0.67110502       4.64032988       0.00169842       0.00904859      -0.02730990
Se       9.64206664       0.67105116       1.26621039       0.00294085       0.00914832       0.00478297
Mo       7.94505782      11.27776774       2.95231556      -0.00207303      -0.00911191       0.02246448
Se       7.94510262       9.34196746       4.64024959       0.00069219       0.00819190      -0.02494672
Se       7.94494522       9.34195429       1.26634171       0.00380577       0.00744553       0.00097072
Mo       9.64227406       8.38725120       2.95237908      -0.00253218      -0.00427240       0.02077922
Se       9.64209475       6.45186612       4.64018636       0.00133175       0.00494043      -0.02369524
Se       9.64204823       6.45181609       1.26630946       0.00202258       0.00527580       0.00074297
48
Lattice="13.776256 0.0 0.0 0.0 11.560944 0.0 0.0 0.0 29.53005" Properties=species:S:1:pos:R:3:forces:R:3 energy=-229.7484000000004 stress="0.006191688107488233 -2.029128465144581e-05 6.518919503405667e-06 -2.029128465144581e-05 0.001742663270065346 2.2953941913400235e-06 6.518919503405667e-06 2.2953941913400235e-06 -0.0001456198074986111" pbc="T T T" 
Mo      -2.26765398       5.50095585       2.95333021       0.00847798      -0.01850840      -0.01522831
Se      -2.26842496       3.55929280       4.62951583       0.00687104       0.01373962       0.02445634
Se      -2.26846744       3.55926229       1.27610476       0.00749173       0.01464390      -0.00997380
Mo      -0.54547947       2.61055696       2.95331952       0.01077128      -0.02779026      -0.01899030
Se      -0.54631781       0.66894069       4.62955401       0.00657351       0.01053805       0.02297505
Se      -0.54636292       0.66887909       1.27604721       0.00725460       0.01110647       0.00059218
Mo      -2.26764514      11.28135525       2.95338245       0.01043043      -0.02945209      -0.02212661
Se      -2.26840830       9.33968853       4.62950836       0.00591719       0.01240372       0.01366441
Se      -2.26845949       9.33961717       1.27609280       0.00726211       0.01559176       0.00740182
Mo      -0.54546865       8.39108199       2.95333063       0.00820591      -0.02344479      -0.02250500
Se      -0.54643321       6.44956308       4.62955998       0.00728648       0.01428654       0.02104052
Se      -0.54634514       6.44949308       1.27611013       0.00726411       0.01718662      -0.00335850
Mo       1.17647667       5.50087271       2.95334799       0.00694761      -0.01948125      -0.01587201
Se       1.17572305       3.55926697       4.62954698       0.00794054       0.01292298       0.03074747
Se       1.17576114       3.55923451       1.27611790       0.00755393       0.01356262      -0.01375911
Mo       2.89847315       2.61062938       2.95334274       0.01296651      -0.02844311      -0.01702687
Se       2.89754689       0.66901516       4.62957811       0.00955643       0.01147666       0.02444127
Se       2.89743015       0.66898689       1.27608802       0.00841198       0.01223282      -0.00321830
Mo       1.17645826      11.28128021       2.95330632       0.01150276      -0.02647866      -0.02422244
Se       1.17573300       9.33971532       4.62951143       0.00813950       0.01254148       0.02428865
Se       1.17574545       9.33967426       1.27607319       0.00794021       0.01519275       0.00098499
Mo       2.89851691       8.39115555       2.95334908       0.01209288      -0.02021867      -0.02026539
Se       2.89748748       6.44970519       4.62968672       0.00913824       0.01470144       0.02912736
Se       2.89741602       6.44962034       1.27614014       0.00870799       0.01689886      -0.01283693
Mo       4.62029384       5.50102749       2.95335490       0.01491968      -0.02277357      -0.01241457
Se       4.61943470       3.55944505       4.62958260       0.01077025       0.01281602       0.02785467
Se       4.61925873       3.55943786       1.27619621       0.01067694       0.01235713      -0.01316138
Mo       6.34232066       2.61080693       2.95330842       0.01159313      -0.02679866      -0.01352737
Se       6.34117042       0.66921838       4.62952368       0.01300184       0.00982825       0.01927906
Se       6.34100000       0.66916814       1.27607780       0.01304835       0.01047236      -0.00287645
Mo       4.62031212      11.28146528       2.95330638       0.01232201      -0.02756590      -0.01891558
Se       4.61952533       9.33995478       4.62954601       0.01083296       0.01285205       0.02031007
Se       4.61931483       9.33990571       1.27609017       0.01043107       0.01395536      -0.00090580
Mo       6.34234145       8.39130427       2.95332357       0.01395189      -0.02257457      -0.01463973
Se       6.34114893       6.44988610       4.62964526       0.01404314       0.01363243       0.01880271
Se       6.34092906       6.44981117       1.27611188       0.01375628       0.01511780      -0.00716122
Mo       8.06422174       5.50109692       2.95329026       0.00825404      -0.01783209      -0.01091904
Se       8.06334845       3.55950066       4.62955832       0.01109678       0.01424628       0.01970414
Se       8.06310200       3.55947259       1.27610030       0.01231906       0.01355686      -0.00790619
Mo       9.78643454       2.61077819       2.95328970       0.00793777      -0.02494785      -0.01396325
Se       9.78541554       0.66904947       4.62952805       0.00878099       0.01100026       0.01898454
Se       9.78531048       0.66900466       1.27603235       0.01066105       0.01119561      -0.00084623
Mo       8.06428657      11.28149427       2.95330494       0.00809728      -0.03127521      -0.01595948
Se       8.06338022       9.33992326       4.62953098       0.01151340       0.01322542       0.00972160
Se       8.06317378       9.33983688       1.27606802       0.01293892       0.01406831       0.00575660
Mo       9.78646305       8.39121389       2.95333069       0.00928500      -0.02212920      -0.01643650
Se       9.78537224       6.44964065       4.62949123       0.00946531       0.01577493       0.01528886
Se       9.78528124       6.44959102       1.27606560       0.01080833       0.01713738      -0.00091223
48
Lattice="13.976256 0.0 0.0 0.0 11.560944 0.0 0.0 0.0 29.53005" Properties=species:S:1:pos:R:3:forces:R:3 energy=-229.23078999999962 stress="0.00892339082671817 4.453064731199646e-05 -3.672630706144038e-06 4.453064731199646e-05 0.0026587091839453225 8.538866391784887e-06 -3.672630706144038e-06 8.538866391784887e-06 3.746083320266918e-05" pbc="T T T" 
Mo      -2.30411427       5.50533478       2.95345273      -0.00705698      -0.00904146      -0.01739717
Se      -2.30319750       3.55794520       4.62148339      -0.00752397       0.00940602       0.00610467
Se      -2.30312460       3.55785768       1.28394082      -0.00636626       0.01159822       0.01078354
Mo      -0.55684827       2.61493588       2.95340309      -0.00700325      -0.00735210      -0.02163766
Se      -0.55612864       0.66762282       4.62164002      -0.00801189       0.00943582       0.00667839
Se      -0.55610571       0.66757014       1.28383735      -0.00698019       0.01016234       0.01415878
Mo      -2.30408035      11.28564111       2.95348879      -0.00736531      -0.00535013      -0.01684857
Se      -2.30315831       9.33836234       4.62168939      -0.00859330       0.01016002       0.00661920
Se      -2.30315392       9.33833063       1.28391354      -0.00748114       0.01107832       0.00830461
Mo      -0.55685337       8.39545685       2.95341999      -0.00718461      -0.00965457      -0.02034743
Se      -0.55614578       6.44806095       4.62167108      -0.00776908       0.00885581       0.00727216
Se      -0.55608972       6.44801062       1.28385867      -0.00653333       0.00951337       0.01281548
Mo       1.19009647       5.50528936       2.95340569      -0.00659907      -0.00973116      -0.02409445
Se       1.19096440       3.55791728       4.62163027      -0.00756694       0.00957741       0.00808301
Se       1.19109419       3.55789085       1.28391038      -0.00788660       0.00989381       0.01707940
Mo       2.93711677       2.61496374       2.95340490      -0.00724938      -0.00824028      -0.02523805
Se       2.93777393       0.66773936       4.62179877      -0.00659614       0.00914457       0.00689066
Se       2.93785573       0.66765693       1.28376107      -0.00836102       0.01098656       0.01822126
Mo       1.19008858      11.28559751       2.95337876      -0.00603299      -0.00548149      -0.02415647
Se       1.19098807       9.33836919       4.62169810      -0.00682443       0.00944058       0.00994248
Se       1.19102415       9.33829302       1.28377200      -0.00653011       0.00995925       0.01451511
Mo       2.93709809       8.39552453       2.95341677      -0.00712520      -0.00972965      -0.02405599
Se       2.93776468       6.44825719       4.62185390      -0.00684862       0.00976844       0.00735351
Se       2.93785381       6.44818893       1.28384246      -0.00838175       0.01081977       0.01698718
Mo       4.68385724       5.50536687       2.95344627      -0.00719652      -0.00937080      -0.02255991
Se       4.68473633       3.55807697       4.62176085      -0.00556981       0.00836802       0.00658830
Se       4.68477780       3.55803503       1.28386059      -0.00807388       0.01035244       0.01612933
Mo       6.43087157       2.61510301       2.95343877      -0.00724375      -0.00611524      -0.01874018
Se       6.43154333       0.66790069       4.62170430      -0.00427603       0.00887450       0.00550746
Se       6.43161330       0.66787154       1.28378809      -0.00734670       0.01079398       0.01258599
Mo       4.68391226      11.28570373       2.95340968      -0.00851184      -0.00504183      -0.02198558
Se       4.68475897       9.33858201       4.62183527      -0.00655693       0.00844744       0.00845507
Se       4.68478309       9.33847691       1.28378461      -0.00870720       0.01050653       0.01349168
Mo       6.43085620       8.39559010       2.95349171      -0.00657832      -0.00762378      -0.01838123
Se       6.43150217       6.44831104       4.62174464      -0.00432982       0.00880307       0.00677067
Se       6.43151973       6.44831417       1.28378830      -0.00708694       0.01005970       0.01203618
Mo       8.17777377       5.50548702       2.95348790      -0.00624238      -0.00907044      -0.01628295
Se       8.17867182       3.55817228       4.62153211      -0.00615134       0.01008628       0.00411770
Se       8.17872241       3.55811302       1.28388729      -0.00822229       0.01139765       0.01105256
Mo       9.92501673       2.61505945       2.95344656      -0.00741308      -0.00526732      -0.01493572
Se       9.92576812       0.66774668       4.62154971      -0.00632448       0.00798322       0.00478912
Se       9.92581121       0.66772217       1.28392721      -0.00663085       0.00952396       0.00913608
Mo       8.17781521      11.28575060       2.95348173      -0.00620705      -0.00531707      -0.01479487
Se       8.17874820       9.33856750       4.62171414      -0.00590598       0.00894358       0.00501010
Se       8.17872948       9.33854134       1.28383452      -0.00688415       0.01037612       0.00883081
Mo       9.92503196       8.39554151       2.95351989      -0.00723997      -0.00638662      -0.01453895
Se       9.92575503       6.44820215       4.62164120      -0.00640444       0.00838396       0.00478775
Se       9.92577834       6.44816405       1.28391035      -0.00656611       0.01021718       0.00925597
48
Lattice="14.176256 0.0 0.0 0.0 11.560944 0.0 0.0 0.0 29.53005" Properties=species:S:1:pos:R:3:forces:R:3 energy=-228.49267700000019 stress="0.011217499597311043 5.150864565367013e-05 -1.377236514804014e-06 5.150864565367013e-05 0.003805763569241759 4.407156847372845e-06 -1.377236514804014e-06 4.407156847372845e-06 7.978790209097921e-05" pbc="T T T" 
Mo      -2.33446272       5.50981218       2.95331480       0.01333382      -0.02886696      -0.01211483
Se      -2.33448519       3.55592935       4.61291034       0.00941672       0.01497709       0.00782950
Se      -2.33459174       3.55584481       1.29293792       0.01107752       0.01692257       0.00486067
Mo      -0.56219456       2.61945748       2.95333789       0.01055584      -0.03134419      -0.01356535
Se      -0.56245651       0.66565740       4.61312092       0.01061562       0.01506731       0.00550250
Se      -0.56251952       0.66554854       1.29276331       0.01140739       0.01742342       0.00787038
Mo      -2.33440277      11.29025909       2.95336414       0.01262036      -0.03120756      -0.01214458
Se      -2.33448070       9.33634425       4.61300953       0.00925525       0.01556284       0.00616777
Se      -2.33455185       9.33634359       1.29283031       0.01033776       0.01633170       0.00592796
Mo      -0.56222369       8.39995868       2.95334778       0.01126506      -0.02944350      -0.01269963
Se      -0.56245559       6.44612266       4.61307172       0.01052581       0.01575868       0.00621929
Se      -0.56254582       6.44603705       1.29281564       0.01152034       0.01633119       0.00640495
Mo       1.20974388       5.50975267       2.95335354       0.01188001      -0.03036332      -0.01384339
Se       1.20964528       3.55593512       4.61319333       0.01003052       0.01492865       0.00461449
Se       1.20959797       3.55582949       1.29276310       0.01101049       0.01664229       0.00861304
Mo       2.98174354       2.61940503       2.95340330       0.01266464      -0.03037090      -0.01476024
Se       2.98155101       0.66571779       4.61332320       0.00898498       0.01418442       0.00234996
Se       2.98148250       0.66563859       1.29251484       0.00845261       0.01722693       0.01111077
Mo       1.20977998      11.29016261       2.95339595       0.01152536      -0.03155675      -0.01423268
Se       1.20967132       9.33636158       4.61320765       0.00973255       0.01425209       0.00338859
Se       1.20962614       9.33623968       1.29267097       0.01055646       0.01657323       0.00983473
Mo       2.98178683       8.39993847       2.95339858       0.01266893      -0.02964989      -0.01400912
Se       2.98155053       6.44615304       4.61328847       0.00880539       0.01529130       0.00273581
Se       2.98147353       6.44608104       1.29255991       0.00859425       0.01641935       0.01057829
Mo       4.75344065       5.50979268       2.95330925       0.01590685      -0.02830646      -0.01292211