48
Lattice="13.376256 0.0 0.0 0.0 11.360944 0.0 0.0 0.0 29.53005" Properties=species:S:1:pos:R:3:forces:R:3 energy=-230.0607029999992 stress="-0.0011680801960891113 -3.2686413284681934e-05 1.1476970956700117e-05 -3.2686413284681934e-05 -0.004308822160215838 1.1017892118432113e-06 1.1476970956700117e-05 1.1017892118432113e-06 -0.00026801022578086113" pbc="T T T" 
Mo      -2.20299586       5.40334683       2.95321440       0.01211828      -0.03099843      -0.01448894
Se      -2.20264043       3.49978305       4.65706261       0.00191470       0.01913130       0.02641022
Se      -2.20301556       3.49972822       1.24860280       0.01300150       0.01895425      -0.00921926
Mo      -0.53091749       2.56300844       2.95362605       0.01514907      -0.03022846      -0.02678902
Se      -0.53047703       0.65931199       4.65707761       0.00162306       0.01718798       0.03195853
Se      -0.53096531       0.65919402       1.24849753       0.01365883       0.02098025      -0.00724637
Mo      -2.20306301      11.08379710       2.95318614       0.01300587      -0.03352945      -0.01220459
Se      -2.20265954       9.18008361       4.65698055       0.00243913       0.01800114       0.02695432
Se      -2.20298116       9.18004661       1.24877021       0.01168045       0.01754151      -0.01287141
Mo      -0.53091763       8.24354953       2.95352293       0.01391995      -0.03072145      -0.02319657
Se      -0.53051074       6.34016019       4.65698628       0.00145630       0.01562164       0.02912397
Se      -0.53088549       6.34009157       1.24854430       0.01289424       0.01444860      -0.00411528
Mo       1.14113891       5.40327744       2.95395640       0.01196651      -0.02948040      -0.03513166
Se       1.14157978       3.49979484       4.65711479       0.00293908       0.01662676       0.03128017
Se       1.14130260       3.49975524       1.24825586       0.01047611       0.01790162       0.00409389
Mo       2.81313494       2.56304928       2.95403761       0.01190999      -0.02900390      -0.03817847
Se       2.81324632       0.65937374       4.65704634       0.00800768       0.01640912       0.03343249
Se       2.81315981       0.65934463       1.24831232       0.00748461       0.01978207       0.00002887
Mo       1.14105098      11.08374615       2.95386311       0.01376877      -0.03171505      -0.03271449
Se       1.14154974       9.18014111       4.65691924       0.00345348       0.01584072       0.03338277
Se       1.14131100       9.18004817       1.24848223       0.00971587       0.01831639      -0.00285228
Mo       2.81312463       8.24364046       2.95388644       0.01249986      -0.02938195      -0.03316124
Se       2.81320219       6.34027066       4.65694845       0.00863078       0.01449061       0.03261987
Se       2.81318585       6.34022480       1.24842669       0.00770241       0.01369041       0.00011976
Mo       4.48505345       5.40335638       2.95375840       0.00863580      -0.02887012      -0.03024510
Se       4.48504411       3.49996804       4.65716121       0.01313296       0.01488998       0.02837511
Se       4.48511353       3.49994553       1.24830086       0.00583034       0.01662861       0.00119255
Mo       6.15702917       2.56312678       2.95336320       0.01072965      -0.02843265      -0.01862716
Se       6.15670913       0.65946985       4.65706226       0.01532419       0.01702469       0.02679959
Se       6.15688716       0.65947078       1.24850919       0.00639415       0.01897773      -0.00850248
Mo       4.48502419      11.08388364       2.95364710       0.00983306      -0.03273601      -0.02747926
Se       4.48507346       9.18029645       4.65697334       0.01196586       0.01615928       0.02778000
Se       4.48517128       9.18023042       1.24847095       0.00566237       0.01752233      -0.00269369
Mo       6.15702650       8.24362969       2.95326168       0.00869979      -0.02789241      -0.01562058
Se       6.15663143       6.34034060       4.65700925       0.01591876       0.01496840       0.02659629
Se       6.15685936       6.34039020       1.24857753       0.00710476       0.01317449      -0.00823452
Mo       7.82892599       5.40346910       2.95303090       0.01036011      -0.03019517      -0.01016707
Se       7.82891383       3.49994385       4.65720486       0.01286799       0.01675899       0.01927610
Se       7.82889084       3.49994990       1.24852487       0.00995899       0.01642377      -0.00762528
Mo       9.50117216       2.56303326       2.95299449       0.00905933      -0.03038995      -0.00870977
Se       9.50111772       0.65937594       4.65715167       0.00693159       0.01670909       0.02324948
Se       9.50099092       0.65932175       1.24866340       0.01052761       0.01862973      -0.01346718
Mo       7.82896627      11.08389186       2.95297119       0.01039872      -0.03100478      -0.00780055
Se       7.82886456       9.18023279       4.65701858       0.01268276       0.01714373       0.02253415
Se       7.82894651       9.18022356       1.24880783       0.00821221       0.01675807      -0.01363729
Mo       9.50116605       8.24363301       2.95291183       0.01103399      -0.03039283      -0.00570204
Se       9.50110115       6.34016690       4.65699992       0.00801747       0.01571242       0.02190637
Se       9.50096195       6.34021433       1.24875190       0.01149345       0.01301711      -0.01158665
48
Lattice="13.376256 0.0 0.0 0.0 11.560944 0.0 0.0 0.0 29.53005" Properties=species:S:1:pos:R:3:forces:R:3 energy=-230.21638100000018 stress="-7.409532449645595e-05 -5.398767138031736e-05 8.355234856477685e-06 -5.398767138031736e-05 -6.362832698394545e-05 2.754473029608028e-06 8.355234856477685e-06 2.754473029608028e-06 7.657435022310318e-05" pbc="T T T" 
Mo      -2.20310949       5.49315942       2.95380231      -0.00116916      -0.01961179      -0.03229563
Se      -2.20396557       3.56391533       4.64823658       0.01522759       0.01227830       0.01072099
Se      -2.20397895       3.56366099       1.25694658       0.01359247       0.01304074       0.01997336
Mo      -0.53056919       2.60236849       2.95377278      -0.00805671      -0.01334076      -0.02577765
Se      -0.53196032       0.67352904       4.64847282       0.01707015       0.00936972       0.00270765
Se      -0.53204058       0.67334406       1.25682846       0.01584072       0.00936576       0.02432027
Mo      -2.20310949      11.27300713       2.95389090       0.00119415      -0.01036479      -0.03537669
Se      -2.20396557       9.34428328       4.64782316       0.01453892       0.01053476       0.01227416
Se      -2.20400570       9.34408674       1.25736000       0.01421424       0.01207488       0.02210648
Mo      -0.53056919       8.38307171       2.95380231      -0.00942950      -0.01599769      -0.02918668
Se      -0.53200045       6.45426694       4.64829564       0.01671292       0.01253845       0.00618592
Se      -0.53200045       6.45400104       1.25694658       0.01468612       0.01455772       0.02028981
Mo       1.14136917       5.49305537       2.95380231      -0.01046876      -0.01879677      -0.02119386
Se       1.14008505       3.56395001       4.64879765       0.01753055       0.01125984      -0.00134011
Se       1.14007168       3.56383440       1.25641504       0.01574801       0.01132072       0.02315824
Mo       2.81325403       2.60236849       2.95374325      -0.00751174      -0.01180044      -0.01881461
Se       2.81206355       0.67363308       4.64885671       0.01318413       0.00943423      -0.00324936
Se       2.81195654       0.67356372       1.25650363       0.01509790       0.00902375       0.02401714
Mo       1.14135580      11.27285684       2.95380231      -0.00866007      -0.00602428      -0.02498112
Se       1.14007168       9.34437577       4.64826611       0.01723277       0.01045565       0.00352804
Se       1.14008505       9.34426016       1.25682846       0.01627550       0.01019191       0.02262779
Mo       2.81333429       8.38307171       2.95380231      -0.00867531      -0.01209730      -0.02337544
Se       2.81206355       6.45440567       4.64876812       0.01251171       0.01243810       0.00285629
Se       2.81195654       6.45423226       1.25665128       0.01448842       0.01450527       0.01681833
Mo       4.48441658       5.49318254       2.95380231       0.00857743      -0.01508451      -0.02410075
Se       4.48421593       3.56412343       4.64897483       0.00913742       0.01135011       0.00082867
Se       4.48392166       3.56398469       1.25644457       0.01472558       0.01187462       0.02015719
Mo       6.15647533       2.60247254       2.95380231       0.00868573      -0.00914606      -0.02998035
Se       6.15592690       0.67380650       4.64844329       0.00820976       0.00830304       0.00783299
Se       6.15583327       0.67373713       1.25659222       0.01132630       0.00706755       0.02562004
Mo       4.48452359      11.27294932       2.95380231       0.00731386      -0.00526274      -0.02775028
Se       4.48428281       9.34465323       4.64847282       0.00884997       0.00915413       0.00412500
Se       4.48400191       9.34445669       1.25676940       0.01366624       0.01099854       0.02203999
Mo       6.15643520       8.38321044       2.95383184       0.00889789      -0.01066370      -0.03309871
Se       6.15587340       6.45454440       4.64841376       0.00800698       0.01301097       0.01057209
Se       6.15581989       6.45441723       1.25671034       0.01111074       0.01318701       0.02142601
Mo       7.82795890       5.49334439       2.95386137       0.01502846      -0.01552980      -0.03645686
Se       7.82818630       3.56418123       4.64841376       0.00803274       0.01022829       0.01072173
Se       7.82793215       3.56406562       1.25665128       0.01241524       0.01095478       0.02436691
Mo       9.50083361       2.60249566       2.95383184       0.00407646      -0.00970653      -0.03661562
Se       9.50007116       0.67365621       4.64808893       0.01103343       0.00831528       0.01328903
Se       9.50003103       0.67350591       1.25697611       0.01103674       0.00774979       0.02493880
Mo       7.82811942      11.27315742       2.95389090       0.01175876      -0.00784611      -0.03903758
Se       7.82814617       9.34453762       4.64794128       0.00824576       0.01066260       0.01306344
Se       7.82795890       9.34436421       1.25715329       0.01168191       0.01099671       0.02528498
Mo       9.50084698       8.38322201       2.95386137       0.00420087      -0.01583705      -0.03871189
Se       9.50005778       6.45430162       4.64794128       0.01089083       0.01363060       0.01355046
Se       9.50001766       6.45413977       1.25703517       0.01071898       0.01394371       0.02430294
48
Lattice="13.376256 0.0 0.0 0.0 11.760944 0.0 0.0 0.0 29.53005" Properties=species:S:1:pos:R:3:forces:R:3 energy=-230.0777849999995 stress="0.0009312873313104743 6.225109046914144e-05 3.764446473797639e-06 6.225109046914144e-05 0.003614327693684001 -3.856262241451239e-06 3.764446473797639e-06 -3.856262241451239e-06 -0.00010310910707499387" pbc="T T T" 
Mo      -2.20301298       5.58195909       2.95332295       0.00091886       0.00390615      -0.01675925
Se      -2.20315373       3.62812142       4.63783403       0.00481367      -0.00355051       0.01485918
Se      -2.20324584       3.62812403       1.26782932       0.00294124      -0.00407674       0.00369007
Mo      -0.53083756       2.64180592       2.95333943      -0.00001172       0.00223267      -0.00501795
Se      -0.53119460       0.68785849       4.63806280       0.00538186      -0.00196697       0.00692025
Se      -0.53125619       0.68788471       1.26775809       0.00219896      -0.00201271      -0.00254035
Mo      -2.20291350      11.46249610       2.95327024      -0.00399333       0.00794294      -0.01341931
Se      -2.20316195       9.50859235       4.63797374       0.00430449      -0.00211257       0.01548388
Se      -2.20319491       9.50863077       1.26764295       0.00224118      -0.00334745      -0.00017003
Mo      -0.53091758       8.52225642       2.95326498       0.00779021       0.00545971      -0.00487854
Se      -0.53120910       6.56838517       4.63798472       0.00578187      -0.00398809       0.00918025
Se      -0.53118001       6.56836957       1.26772643       0.00132119      -0.00476850      -0.00338031
Mo       1.14103328       5.58196530       2.95330373       0.00685091       0.00617206       0.00464380
Se       1.14085150       3.62819331       4.63807960       0.00483591      -0.00387979       0.00299868
Se       1.14081114       3.62819650       1.26784169       0.00314107      -0.00451897      -0.00741912
Mo       2.81306687       2.64178625       2.95333588       0.00312482       0.00799505       0.00529100
Se       2.81274069       0.68802469       4.63822140       0.00278481      -0.00322010       0.00443865
Se       2.81268756       0.68803016       1.26771320       0.00491996      -0.00297693      -0.01023294
Mo       1.14113029      11.46262387       2.95328063       0.00000183       0.00007091       0.00481940
Se       1.14092305       9.50866990       4.63825861       0.00415825      -0.00359371      -0.00114347
Se       1.14092262       9.50869963       1.26751169       0.00183363      -0.00429120      -0.00289298
Mo       2.81313080       8.52232330       2.95329029      -0.00030776       0.00392636       0.00622958
Se       2.81274782       6.56851270       4.63835580       0.00210306      -0.00489536      -0.00216145
Se       2.81272586       6.56847526       1.26765004       0.00386319      -0.00507903      -0.00468524
Mo       4.48497141       5.58210400       2.95334333      -0.00081355       0.00254061      -0.00229623
Se       4.48477383       3.62833086       4.63821411       0.00116913      -0.00446721       0.00412899
Se       4.48464753       3.62832615       1.26770435       0.00668417      -0.00470419      -0.00150070
Mo       6.15701046       2.64187383       2.95335156       0.00320719       0.00841468      -0.01533524
Se       6.15658104       0.68811877       4.63805737       0.00463948      -0.00345255       0.01639911
Se       6.15651507       0.68812706       1.26757559       0.00822990      -0.00281364      -0.00134793
Mo       4.48499521      11.46267678       2.95330857       0.00074804       0.00070698      -0.00314168
Se       4.48477874       9.50884705       4.63836634       0.00207421      -0.00450036       0.00434324
Se       4.48468144       9.50878024       1.26746793       0.00664257      -0.00340090      -0.00339473
Mo       6.15704453       8.52236932       2.95323271      -0.00011799       0.00574901      -0.01030455
Se       6.15654262       6.56857315       4.63816128       0.00408078      -0.00452098       0.01241612
Se       6.15646281       6.56857661       1.26752099       0.00804714      -0.00560706       0.00011884
Mo       7.82892577       5.58216190       2.95326817       0.00303395       0.00066571      -0.02078765
Se       7.82875310       3.62829403       4.63802107       0.00512981      -0.00407522       0.01292293
Se       7.82865877       3.62831031       1.26759845       0.00706969      -0.00461680       0.00964133
Mo       9.50121665       2.64193002       2.95326690      -0.00040659       0.00131461      -0.02142974
Se       9.50081322       0.68803783       4.63804086       0.00598347      -0.00357638       0.00924880
Se       9.50073347       0.68796313       1.26759361       0.00580324      -0.00263903       0.01107701
Mo       7.82891763      11.46263843       2.95322757       0.00881089       0.00601546      -0.01894991
Se       7.82873951       9.50878790       4.63811495       0.00572983      -0.00387416       0.01481981
Se       7.82863694       9.50877972       1.26749713       0.00832577      -0.00366218       0.00399789
Mo       9.50123643       8.52229417       2.95321886      -0.00124585       0.00677486      -0.01981444
Se       9.50076232       6.56843101       4.63794731       0.00612203      -0.00447976       0.01791139
Se       9.50070441       6.56845228       1.26762039       0.00599568      -0.00583949       0.00557528
48
Lattice="13.376256 0.0 0.0 0.0 11.960944 0.0 0.0 0.0 29.53005" Properties=species:S:1:pos:R:3:forces:R:3 energy=-229.64439800000036 stress="0.0019318955671994175 3.452272863775395e-05 5.600761826869658e-06 3.452272863775395e-05 0.0070883608943933 1.0099734441896103e-06 5.600761826869658e-06 1.0099734441896103e-06 -3.305367635529634e-05" pbc="T T T" 
Mo      -2.20280034       5.67225431       2.95335942       0.00728612       0.00887686      -0.01956872
Se      -2.20286389       3.69237463       4.62747961       0.00227494      -0.01255709       0.00845009
Se      -2.20288472       3.69225804       1.27813401       0.00213705      -0.01275069       0.01119680
Mo      -0.53047350       2.68175006       2.95340369       0.00669533       0.01194275      -0.01672405
Se      -0.53074369       0.70187459       4.62752893       0.00148492      -0.00991114       0.00831263
Se      -0.53078150       0.70176290       1.27824415       0.00117677      -0.01060709       0.00722449
Mo      -2.20274724      11.65257336       2.95335316       0.00582643       0.01011806      -0.01912788
Se      -2.20290988       9.67268127       4.62736973       0.00260023      -0.01011331       0.01222521
Se      -2.20297814       9.67249760       1.27828579       0.00272776      -0.00941235       0.00641516
Mo      -0.53051556       8.66227421       2.95339772       0.00600062       0.01102062      -0.01777545
Se      -0.53082774       6.68272909       4.62741429       0.00164759      -0.01382338       0.01077657
Se      -0.53086021       6.68253834       1.27828195       0.00184472      -0.01325625       0.00653387
Mo       1.14138347       5.67212562       2.95349960       0.00683579       0.00996493      -0.01529133
Se       1.14133165       3.69231913       4.62749225       0.00116690      -0.01248096       0.00707799
Se       1.14136323       3.69228088       1.27816950       0.00053970      -0.01226864       0.00799893
Mo       2.81344949       2.68183241       2.95351363       0.00673107       0.01024235      -0.01469427
Se       2.81310552       0.70192152       4.62743056       0.00216909      -0.00993533       0.00826003
Se       2.81300637       0.70190987       1.27825189       0.00327517      -0.01086268       0.00671750
Mo       1.14145729      11.65241848       2.95345997       0.00630851       0.01049388      -0.01571713
Se       1.14125410       9.67270146       4.62732930       0.00215947      -0.01139490       0.01147041
Se       1.14124414       9.67259272       1.27828476       0.00179856      -0.01089700       0.00464732
Mo       2.81342688       8.66239583       2.95349287       0.00616443       0.01008649      -0.01548012
Se       2.81310902       6.68281345       4.62751269       0.00203050      -0.01361510       0.00824882
Se       2.81298514       6.68267390       1.27826335       0.00345464      -0.01308136       0.00670037
Mo       4.48520658       5.67227208       2.95349041       0.00619276       0.00940276      -0.01670605
Se       4.48506209       3.69251444       4.62749293       0.00279068      -0.01251531       0.00677182
Se       4.48485869       3.69240173       1.27826234       0.00534149      -0.01226511       0.00948341
Mo       6.15729281       2.68206642       2.95339140       0.00334326       0.00863040      -0.01867279
Se       6.15658495       0.70209137       4.62733060       0.00636173      -0.01021458       0.01063871
Se       6.15651827       0.70204879       1.27822505       0.00796281      -0.00990754       0.00918457
Mo       4.48525495      11.65265954       2.95341739       0.00498689       0.00980192      -0.01689799
Se       4.48512920       9.67298424       4.62732981       0.00190161      -0.01245486       0.01118710
Se       4.48489951       9.67286094       1.27831157       0.00448118      -0.01186693       0.00601998
Mo       6.15725887       8.66253246       2.95337377       0.00358887       0.00851963      -0.01902722
Se       6.15660202       6.68297398       4.62738175       0.00568222      -0.01395703       0.00989029
Se       6.15649118       6.68285022       1.27822304       0.00743977      -0.01494660       0.00885275
Mo       7.82914413       5.67236984       2.95333453       0.00352570       0.01037615      -0.02054661
Se       7.82879840       3.69258610       4.62741302       0.00538096      -0.01321488       0.01066386
Se       7.82867309       3.69250319       1.27813719       0.00715219      -0.01323249       0.01170572
Mo       9.50137758       2.68203412       2.95330928       0.00569828       0.00960708      -0.02102432
Se       9.50090981       0.70202774       4.62749178       0.00495737      -0.00985879       0.01002579
Se       9.50084000       0.70189828       1.27813687       0.00562249      -0.01032468       0.01124032
Mo       7.82917674      11.65273265       2.95331010       0.00440265       0.00999131      -0.02061238
Se       7.82882508       9.67286352       4.62723386       0.00524171      -0.01093305       0.01433398
Se       7.82869936       9.67269169       1.27831494       0.00669083      -0.00983979       0.00667399
Mo       9.50140277       8.66247260       2.95330003       0.00505939       0.00992477      -0.02071764
Se       9.50089613       6.68285413       4.62735446       0.00468684      -0.01406347       0.01357342
Se       9.50082166       6.68263296       1.27821622       0.00512765      -0.01319336       0.00866747
48
Lattice="13.376256 0.0 0.0 0.0 12.160944 0.0 0.0 0.0 29.53005" Properties=species:S:1:pos:R:3:forces:R:3 energy=-228.949251 stress="0.0028485841914529693 -2.3688468054629045e-05 5.876209129830461e-06 -2.3688468054629045e-05 0.010331661070989099 1.836315353072019e-06 5.876209129830461e-06 1.836315353072019e-06 0.00014699704401341512" pbc="T T T" 
Mo      -2.20259793       5.76416446       2.95322509       0.00533049       0.01157994      -0.02197185
Se      -2.20295873       3.75623100       4.61816681       0.01039101      -0.00448236      -0.00398148
Se      -2.20302089       3.75612776       1.28735116       0.01016846      -0.00633450       0.02658917
Mo      -0.53034212       2.72348961       2.95346942       0.00689948       0.01607030      -0.01983593
Se      -0.53092364       0.71551874       4.61828003       0.00937987      -0.00670662      -0.00620693
Se      -0.53101482       0.71545854       1.28736962       0.00864572      -0.00685533       0.02601221
Mo      -2.20252971      11.84365742       2.95325553       0.00309234       0.03060431      -0.02331093
Se      -2.20292293       9.83661016       4.61759275       0.00847608      -0.00628113       0.01063437
Se      -2.20300097       9.83648034       1.28798641       0.00902786      -0.00649972       0.01584309
Mo      -0.53061172       8.80391006       2.95331223       0.01861057       0.01923777      -0.02041703
Se      -0.53090815       6.79646553       4.61769708       0.00889710      -0.00651376       0.00547262
Se      -0.53098867       6.79635739       1.28781038       0.00903103      -0.00679633       0.01696874
Mo       1.14135035       5.76393597       2.95359743       0.01798297       0.01982316      -0.01799302
Se       1.14115442       3.75620819       4.61823334       0.01071081      -0.00649571      -0.00660768
Se       1.14118495       3.75622962       1.28723018       0.01069836      -0.00759350       0.02132262
Mo       2.81355739       2.72337883       2.95374098       0.00804773       0.02209100      -0.01750276
Se       2.81297315       0.71565577       4.61816861       0.00961523      -0.00562930      -0.00369884
Se       2.81293877       0.71574803       1.28729378       0.01028619      -0.00821429       0.01910659
Mo       1.14162398      11.84393436       2.95354245       0.00616103       0.01914251      -0.01767248
Se       1.14132582       9.83646175       4.61784540       0.00806936      -0.00624549      -0.00146309
Se       1.14128217       9.83636801       1.28768467       0.00743388      -0.00613062       0.02004095
Mo       2.81364182       8.80407788       2.95360112       0.00749546       0.01440474      -0.01703071
Se       2.81302143       6.79674894       4.61801759       0.00925901      -0.00931907      -0.00797926
Se       2.81303276       6.79665694       1.28745673       0.00958641      -0.00833176       0.02423514
Mo       4.48550528       5.76400600       2.95362634       0.00275609       0.01921365      -0.01782109
Se       4.48497723       3.75633093       4.61816669       0.01039448      -0.00680147      -0.00499658
Se       4.48497372       3.75635061       1.28723254       0.01090562      -0.00751626       0.02223524
Mo       6.15726850       2.72351786       2.95354590       0.01716376       0.02601558      -0.02235551
Se       6.15682173       0.71587856       4.61800271       0.01184438      -0.00713016       0.00083998
Se       6.15685493       0.71581052       1.28736383       0.01243298      -0.00841908       0.02098913
Mo       4.48536165      11.84411628       2.95355671       0.00992906       0.01597113      -0.01938877
Se       4.48498021       9.83660004       4.61785863       0.01049483      -0.00603772      -0.00075806
Se       4.48489141       9.83644443       1.28759354       0.01242519      -0.00567193       0.01978441
Mo       6.15745604       8.80408134       2.95333984       0.00741689       0.02261445      -0.02063791
Se       6.15681109       6.79679241       4.61775932       0.01264338      -0.00856507       0.00467859
Se       6.15681176       6.79666064       1.28773659       0.01326054      -0.00747101       0.01757493
Mo       7.82932236       5.76435088       2.95329047       0.01378135       0.01068072      -0.02233001
Se       7.82898639       3.75647573       4.61822959       0.01017545      -0.00512737      -0.00800256
Se       7.82894143       3.75641090       1.28719090       0.01157187      -0.00671302       0.03277514
Mo       9.50154803       2.72366473       2.95326114       0.00730075       0.01807180      -0.02445515
Se       9.50100290       0.71583092       4.61821518       0.01044832      -0.00955435      -0.01095694
Se       9.50103132       0.71561220       1.28734396       0.00994621      -0.01065257       0.03538021
Mo       7.82906109      11.84386637       2.95327358       0.02224058       0.02496315      -0.02432958
Se       7.82897514       9.83672292       4.61759570       0.01004078      -0.00668546       0.00664021
Se       7.82885981       9.83657966       1.28787183       0.01253966      -0.00653161       0.02031619
Mo       9.50157992       8.80399920       2.95306300       0.00817953       0.02075048      -0.02386480
Se       9.50104761       6.79664251       4.61758584       0.01027146      -0.00941484       0.00493914
Se       9.50096420       6.79647938       1.28791867       0.01146728      -0.00920869       0.02223927
48
Lattice="13.376256 0.0 0.0 0.0 12.360944 0.0 0.0 0.0 29.53005" Properties=species:S:1:pos:R:3:forces:R:3 energy=-228.02162999999928 stress="0.003710366986649668 7.528892947595278e-06 3.121736100222432e-06 7.528892947595278e-06 0.013088337679020814 -2.387209958993625e-06 3.121736100222432e-06 -2.387209958993625e-06 9.75083452481242e-05" pbc="T T T" 
Mo      -2.20275062       5.85414700       2.95333724       0.00701554       0.02736346      -0.01516673
Se      -2.20270501       3.81974470       4.60833894       0.00876309      -0.01227650      -0.00139899
Se      -2.20269281       3.81960587       1.29749095       0.00784310      -0.01318014       0.01673025
Mo      -0.53056063       2.76381157       2.95344083       0.01053317       0.02323221      -0.01299423
Se      -0.53066705       0.72910591       4.60841049       0.00995038      -0.00947938       0.00013948
Se      -0.53059651       0.72909084       1.29755173       0.00792031      -0.01124719       0.01501188
Mo      -2.20277372      12.03456779       2.95340079       0.00852989       0.02459389      -0.01970275
Se      -2.20272472      10.00036255       4.60839478       0.00911268      -0.01367544      -0.00213250
Se      -2.20268362      10.00023790       1.29738707       0.00735390      -0.01321480       0.02004463
Mo      -0.53070761       8.94441509       2.95334463       0.01434766       0.02488036      -0.01339578
Se      -0.53051659       6.90987093       4.60839476       0.00750778      -0.01092315      -0.00225614
Se      -0.53043479       6.90967349       1.29752518       0.00614262      -0.01062452       0.01381300
Mo       1.14132553       5.85410012       2.95348294       0.01353904       0.02724557      -0.00958258
Se       1.14167026       3.81976493       4.60834213       0.00719073      -0.01321588      -0.00138055
Se       1.14164440       3.81973650       1.29763095       0.00704462      -0.01395795       0.01055852
Mo       2.81340731       2.76382197       2.95352706       0.01118926       0.02519314      -0.00983897
Se       2.81330155       0.72933151       4.60840869       0.00872249      -0.01015388       0.00105860
Se       2.81323375       0.72940156       1.29759889       0.01008875      -0.01195288       0.01010040
Mo       1.14144099      12.03450420       2.95347391       0.00968347       0.02364047      -0.01227802
Se       1.14183832      10.00009780       4.60825023       0.00484995      -0.01294533      -0.00070392
Se       1.14184518      10.00003660       1.29759691       0.00481215      -0.01241491       0.01256028
Mo       2.81346989       8.94443166       2.95349254       0.00948773       0.02544719      -0.01127434
Se       2.81332082       6.91030058       4.60812308       0.00815845      -0.01431251       0.00071446
Se       2.81326488       6.91032975       1.29775525       0.00929253      -0.01533877       0.00919838
Mo       4.48526764       5.85426011       2.95347913       0.00856332       0.02634101      -0.01115867